ITEM: TIMESTEP
0
ITEM: NUMBER OF ATOMS
0
ITEM: BOX BOUNDS pp pp fm
0.0000000000000000e+00 2.0000000000000000e+01
0.0000000000000000e+00 2.0000000000000000e+01
0.0000000000000000e+00 1.1000000000000000e+02
ITEM: ATOMS mol x y z radius c_voro[1] c_coordination c_kinetic c_voro[2] c_order[1] c_order[2] c_order[3] 
ITEM: TIMESTEP
10000000
ITEM: NUMBER OF ATOMS
4500
ITEM: BOX BOUNDS pp pp fm
0.0000000000000000e+00 2.0000000000000000e+01
0.0000000000000000e+00 2.0000000000000000e+01
0.0000000000000000e+00 1.1000000000000000e+02
ITEM: ATOMS mol x y z radius c_voro[1] c_coordination c_kinetic c_voro[2] c_order[1] c_order[2] c_order[3] 
156    0.612705058385302     1.08159075141041     1.01279896802822       0.928253029752     2.82038519124706                    4 8.38546800438979e-15                   14                    0                    0                    0 
156    0.895274622796641       1.149306020268     1.00409739652235     0.99153252289505     1.62525092811249                    1  8.1967550120667e-15                   12                    0                    0                    0 
156     1.53828615339571     1.01801228921596    0.998084000644633                    1     3.53084354963399                    4 6.57321328343189e-15                   11                    0                    0                    0 
127     3.50199591698932    0.640172021769635    0.999756067450859                    1      3.8033806142267                    2 7.51336030977507e-15                   13                    0                    0                    0 
127     3.95010499656782    0.747801184421241     1.08731097733792     0.99829374256475     1.03223834859394                    1 1.05838043983354e-14                    9                    0                    0                    0 
127     4.11520917860367    0.406548320886699    0.988464681905196     0.99153252289505     1.55736262153932                    4 9.09004710017515e-15                   10                    0                    0                    0 
127     4.31992237796958    0.206421505269086    0.937983027912825       0.928253029752     2.82388556940222                    4 8.58341523520753e-15                   14                    0                    0                    0 
127     3.90394075183355     1.13624048582785      1.2279519218517     0.96532406315995     3.12614724024594                    9 1.71330693908404e-14                   15                    0                    0                    0 
216     7.35666149175816    0.588791304673681    0.988690968977299       0.928253029752      2.8558572438743                    4 6.88591047699135e-15                   13                    0                    0                    0 
216     7.63305098487118    0.678855982419832    0.990649445536941     0.99153252289505     1.68758750873641                    1 7.63466248293691e-15                   12                    0                    0                    0 
216     8.28429719209562    0.599215521124364     1.00719658152428                    1      3.5720187328573                    5 6.05418010992683e-15                   15                    0                    0                    0 
216     7.94194289888753    0.919748089867216    0.996995778134223     0.99829374256475     1.00501515600601                    0 7.11481961928841e-15                    9                    0                    0                    0 
156     1.22238595119703     1.36479476458718    0.997294616000654     0.99829374256475    0.967210803930531                    1 6.16942045781289e-15                    8                    0                    0                    0 
156     1.47684183905545     1.69296122171272    0.978451017700385     0.96532406315995     3.13547719513834                    4  4.7851277383898e-15                   10                    0                    0                    0 
199     5.76179498120641     2.19320649091347     1.00594442542789     0.96532406315995     3.59979753477905                    4 1.73336538655583e-15                   15                    0                    0                    0 
199     6.43409726463152     2.28083470536412    0.999026695693975                    1      3.5058534133163                    3 5.94035699700342e-15                   14                    0                    0                    0 
216     8.16988957038513     1.26727909448268    0.989339445985232     0.96532406315995      3.2862216290834                    2 6.18417794968353e-15                   13                    0                    0                    0 
306    0.678463950918314     3.44928962043398    0.963241548759512     0.96532406315995     3.21419137229438                    5  4.8084351744426e-15                   13                    0                    0                    0 
229     3.28243405395848     3.42833721658709     1.22716676587855                    1     3.38121001426675                    5 5.88234011464018e-15                   16                    0                    0                    0 
229     3.01095519700564     2.86612268828726    0.962722114458122     0.96532406315995     3.34106633943462                    5 1.09552824599125e-14                   14                    0                    0                    0 
229     3.39146167340974     3.02614813524748     1.01174028850678     0.99829374256475    0.921553090801046                    3  5.0460686252125e-15                    7                    0                    0                    0 
229     3.77987988559801     3.07221588094726    0.989546749635761     0.99153252289505     1.61914572402416                    3 1.30619479439488e-15                   10                    0                    0                    0 
229     4.05914892565079      3.0147338991794    0.932878780235837       0.928253029752     2.57748218700624                    4  5.0350234213205e-16                   13                    0                    0                    0 
199      6.0267069804103     2.51336298193253    0.995102028234442     0.99829374256475    0.931105511009045                    2 3.66754119157291e-15                    9                    0                    0                    0 
199     6.17006927144689     3.17029954677264    0.988995282415906       0.928253029752     2.55529195701232                    5   5.614850275507e-15                   14                    0                    0                    0 
199      6.1655944034446     2.87968729658725    0.994574647181035     0.99153252289505      1.5768279993189                    3 5.49038582267812e-15                   11                    0                    0                    0 
233     8.27907223463375     3.42175754437336    0.963064130292327     0.96532406315995     3.16261067303637                    6 1.53467333864673e-14                   14                    0                    0                    0 
233     8.69264692723501     3.39791335085519    0.997466625991396     0.99829374256475    0.960394445546669                    0  1.6338822423872e-14                    9                    0                    0                    0 
233     9.05493021950257     3.25031590965959     1.01866354572997     0.99153252289505     1.74544961029962                    0 1.58946638079251e-14                   12                    0                    0                    0 
233     9.27020647611265     3.05578560066112     1.03657236843784       0.928253029752     2.62897235379673                    4 1.33242438091482e-14                   11                    0                    0                    0 
306     0.78729301652454     4.23704654484843     1.00834592024454     0.99153252289505     1.58435306713905                    4 5.27508588139758e-15                   12                    0                    0                    0 
306    0.787006856989824     3.84566228170469      1.0257175807884     0.99829374256475     1.02339413681024                    1 5.42885923389333e-15                   10                    0                    0                    0 
306    0.716141083667491     4.50711886274279    0.927692468552576       0.928253029752     2.45642564411164                    7 4.22806746134533e-15                   12                    0                    0                    0 
51     4.99859436298151     4.65700257441834    0.964613802713485     0.96532406315995     2.98277945808719                    6  8.2035817507152e-15                   13                    0                    0                    0 
289     6.98826763723715     4.83513510751778    0.948931039937413       0.928253029752     3.02856662578918                    4 1.64999351883892e-14                   14                    0                    0                    0 
289     7.00424095111303     4.88085317446874     1.23556904389893     0.99153252289505     1.54021718540437                    3 1.61710623263802e-14                   16                    0                    0                    0 
233      8.7996559863057     3.85463726730722    0.999459489940431                    1     3.48256722497554                    3 1.49771369518057e-14                   15                    0                    0                    0 
73     2.41090909608215     5.43322829517568    0.988908871938907     0.99153252289505     1.55705388344054                    5 4.00337453972114e-15                   12                    0                    0                    0 
73     2.47111125034435     5.15208089917629    0.946031417947519       0.928253029752      2.5578603461178                    8 3.74814599993594e-15                   13                    0                    0                    0 
73     2.46463323546021      5.8184327486992     1.03596993604363     0.99829374256475    0.991925998640395                    0 4.32020349985754e-15                   10                    0                    0                    0 
73     2.01603139819573     5.95092104441827     1.07139435142489                    1     3.76648459983404                    2 3.71436222362949e-15                   14                    0                    0                    0 
73     2.65176918839303     6.18611561275243     1.08681824229669     0.96532406315995       3.261502054633                    5 4.78277994811174e-15                   14                    0                    0                    0 
51     4.48234710811232     5.05890018825603       1.142613800218                    1     3.66237148162121                    1 2.98275662471309e-14                   17                    0                    0                    0 
51     4.92978362983727     5.06525977454221     1.00185954344691     0.99829374256475    0.966750073419895                    1  8.6722661240282e-15                   11                    0                    0                    0 
51     4.98391661229817      5.4530330991682    0.988259291861642     0.99153252289505     1.63479125882866                    3 5.90996503510192e-15                   13                    0                    0                    0 
51     5.11632991070801     5.70947590909371    0.953467951564227       0.928253029752     2.53061608147506                    7   3.656001420283e-15                   13                    0                    0                    0 
225     8.65114390441538     6.15280517129068      1.0244145785182     0.99829374256475    0.990517100988067                    0 2.74665366424283e-15                   10                    0                    0                    0 
225     8.89006223201125     5.81519713652108     1.06606732443942     0.96532406315995     3.09910057991667                    7 3.35996488600324e-15                   14                    0                    0                    0 
32     0.11584081504528     7.11301701191623    0.973607259560755       0.928253029752     2.64221526975385                    5 4.82804285399372e-15                   14                    0                    0                    0 
135     4.18200080633772     7.35521959421172    0.963759146329741     0.96532406315995     3.23766759438353                    3 3.59029597107956e-15                   14                    0                    0                    0 
125     6.31367437263526     7.20089323859274     0.99172583618355     0.96532406315995      3.3183899310717                    4 3.60830120321905e-15                   14                    0                    0                    0 
225     8.33454623247718     6.38057459127721    0.987394268400387     0.99153252289505     1.57563328290975                    4 1.92569638049585e-15                   12                    0                    0                    0 
225     8.05685003771588      6.4589848755562    0.952134029474708       0.928253029752     2.53669819962762                   12  1.3003127688354e-15                   17    0.553434168733254    0.402045703662944     0.25601546735355 
225     8.97856957296527     6.48732932487469     1.05503594924773                    1     3.57972252822014                    3 5.91543600157522e-15                   15                    0                    0                    0 
290     1.84030605442029     7.97142752863881    0.999077431591306                    1     3.65217030375196                    2 4.27486302023956e-15                   14                    0                    0                    0 
290     1.80322286992951     8.39760817000982     1.19155222069921     0.99829374256475     1.03984344652456                    2 4.04394227892955e-15                   10                    0                    0                    0 
290     2.10174813467618     8.57333790785786     1.00856253941385     0.99153252289505     1.68346229041485                    1 4.43700984509452e-15                   11                    0                    0                    0 
135     4.09426321105762     8.14444637659091     1.02590689134438     0.99153252289505     1.65272759373184                    2 4.09572818958343e-15                   13                    0                    0                    0 
135     4.10549252044552     7.75381519042202     1.05355968376975     0.99829374256475     1.03764881975036                    1 3.95779768201401e-15                    8                    0                    0                    0 
135      4.1451615811252     8.41303844613634    0.927041883275987       0.928253029752     2.79422995569623                    4 3.70146866053967e-15                   12                    0                    0                    0 
125     6.09822041935994     7.84373259233338    0.999079647807193                    1      3.3359889526367                    5  3.5704258884053e-15                   13                    0                    0                    0 
125     6.48567025407621     7.57928759925229    0.997314058339414     0.99829374256475     0.91940998881208                    2 2.65009451999218e-15                    9                    0                    0                    0 
125     6.75415112738721     7.86453410860926     0.99131843669205     0.99153252289505     1.60409358138538                    2 1.51315225305289e-15                   11                    0                    0                    0 
125     7.01351831172556     7.99581735982108    0.991391588412265       0.928253029752     2.77911311401505                    6 7.12597102468976e-16                   13                    0                    0                    0 
311     9.16919797557364     8.47765248347291     1.06758169759029                    1     3.80961922597213                    2 3.48271227876025e-15                   15                    0                    0                    0 
311     9.82066621484685     8.44603319991252     0.99459274396549     0.99153252289505      1.6221564116403                    1 4.29576928828264e-15                    8                    0                    0                    0 
311     9.55529716984499     8.73423652464356    0.995862187686153     0.99829374256475     1.00819150301438                    0 3.86190899945751e-15                   10                    0                    0                    0 
164   0.0599142041901579      9.5596466990816    0.964135376133178     0.96532406315995     3.42118430957259                    3 7.09517050220933e-15                   15                    0                    0                    0 
290     2.28753299471514     8.78112351159591    0.926004908809191       0.928253029752     2.94005659294295                    5  3.8896666735122e-15                   11                    0                    0                    0 
258     5.71225116523833     9.76969904186639    0.964399304354081     0.96532406315995     3.11425454578115                    7 3.08897939456819e-15                   15                    0                    0                    0 
288     7.60528548154001      9.7529663854975     1.02117698284055       0.928253029752     2.61479541233871                    5 9.89376634060761e-16                   10                    0                    0                    0 
311     9.38765441340805     9.11453364238888    0.987731253333758     0.96532406315995     2.92828986008007                    9 3.29851943155859e-15                   15                    0                    0                    0 
28     5.43979220230455    0.854942658596837     2.30207196147943       0.928253029752     2.28033312908385                   10 3.19515173595235e-15                   19                    0                    0                    0 
28     5.69971714778069    0.769797482688847     2.40054000428077     0.99153252289505     1.59843243119553                    5 3.81750200682444e-15                   16                    0                    0                    0 
28     5.98902305188322    0.534740990145766     2.52109719852037     0.99829374256475    0.913694210727277                    3 4.24932236214031e-15                   10                    0                    0                    0 
28     6.32141504672572     0.85820636350973     2.59136354964142                    1     3.46349567740871                    3 3.34176340487878e-15                   19                    0                    0                    0 
144    0.515287646848516     2.35181728004093     2.58307944468596                    1     3.31742216097467                    7 8.36341832689286e-15                   19                    0                    0                    0 
137     2.58281831778293     1.59302907538137     2.55746508295636     0.96532406315995     2.74158886369912                    8 2.51235553907289e-14                   17                    0                    0                    0 
61     4.71030705775375     3.67654216641637      2.6009671993094     0.96532406315995     2.64386712230019                   10 6.87566853791148e-16                   14                    0                    0                    0 
306     1.13492474806426     3.78604306414832     1.33466795878283                    1      3.5821346268628                    3 7.65466229333126e-15                   17                    0                    0                    0 
289     7.30326989951561     4.89556361376269     1.81960955981473                    1     3.14540769514258                    8 1.40681425221145e-14                   19                    0                    0                    0 
289     6.89417539606791     4.96717745280978     1.60151602159444     0.99829374256475      1.0046014496097                    1 1.19870813320729e-14                   12                    0                    0                    0 
289     6.66217435277869     5.09014869538537     1.92377320624932     0.96532406315995     3.03587594466613                    6 1.48005361818648e-14                   16                    0                    0                    0 
293     7.99917682354637      7.4822489930884     2.60374820683994     0.99153252289505     1.47276218018118                    6 2.12746806330312e-15                   14                    0                    0                    0 
290     1.48373798512868     8.33187972869052     1.44924444802479     0.96532406315995     2.96969240309865                    6 3.22866077863632e-15                   18                    0                    0                    0 
135     3.84944335856313     7.70080612809849     1.44302150747372                    1     3.10839767592855                   10 3.54026408037297e-15                   20                    0                    0                    0 
293     8.14304161298893     7.71702686013925     2.51053388809499       0.928253029752     2.39539502517479                    8 2.62195571150335e-15                   15                    0                    0                    0 
169     3.35685796828556     9.38703142074477     2.36408164109014     0.96532406315995     2.77783099327268                   10 4.56776264113295e-15                   17                    0                    0                    0 
169     3.69131933387124     9.31930818236484     2.60145320964473     0.99829374256475    0.933904355218902                    3 5.19392617744496e-15                   11                    0                    0                    0 
169     3.90725027146955      9.7332820747224      2.5561642183222                    1     3.41521237186803                    2 5.58443692502364e-15                   23                    0                    0                    0 
187     1.06727329087028    0.255061005217804     2.78457088900741                    1      3.1496678784678                    5 3.07958347638992e-15                   16                    0                    0                    0 
84      3.7128325963183   0.0829457783773551     2.96050415590139     0.96532406315995     2.82913094298199                    6 1.82754212458233e-14                   21                    0                    0                    0 
28     6.19535970463606    0.193714736318162     2.63909034906399     0.96532406315995     2.70196728694341                   11 5.16042815292652e-15                   20                    0                    0                    0 
96     8.95464561605555     1.20383235119641      2.7102523506972       0.928253029752     2.38733564383657                    5 1.91109116307248e-14                   16                    0                    0                    0 
144   0.0574690815072251     2.34338508766463     2.68497500619192     0.99829374256475    0.911498442985911                    3 8.94455094800821e-15                    9                    0                    0                    0 
144   0.0118544360338058      1.9400854384178     2.77477924147407     0.96532406315995     2.89727507567901                    5 8.36940522689951e-15                   15                    0                    0                    0 
137     2.50351678796922     2.23740189987958     2.75294359756408                    1     3.35789413729928                    4 1.77517847905414e-14                   19                    0                    0                    0 
137     2.82755151407798     1.90647094928025     2.67852687693156     0.99829374256475    0.883031322321541                    4 1.68005022152912e-14                    9                    0                    0                    0 
137     3.14829126982833     2.11526735942757      2.7622739133419     0.99153252289505     1.55375481350125                    4 9.96939423229392e-15                   15                    0                    0                    0 
137     3.42816290017534     2.18078563499392     2.80570040073412       0.928253029752     2.34642285491901                    6 6.25939162078951e-15                   19                    0                    0                    0 
278     4.73657309236913     1.46370975014638     3.90743282839801       0.928253029752     2.17448217157951                   11 1.20419689558782e-14                   14                    0                    0                    0 
52     7.50774669176159     2.42259539122565     2.64690989946752     0.96532406315995     3.07419725910254                    4 1.61360269885869e-14                   20                    0                    0                    0 
96     9.19128204915698     1.36201513428568     2.76931197634197     0.99153252289505     1.65025745319927                    2 1.95318016945332e-14                   15                    0                    0                    0 
96     9.55743850190866     1.90668628238893     2.77022069874402                    1     3.30900276706793                    5  1.2309630967456e-14                   18                    0                    0                    0 
96     9.55150663014618      1.4539496827076     2.89288295992119     0.99829374256475    0.910937583262561                    1 1.77048679854755e-14                   11                    0                    0                    0 
96     9.92661350101592     1.42298980099094      3.0693267889501     0.96532406315995     2.84666902656989                    5 1.60913378045963e-14                   19                    0                    0                    0 
17     1.07849145754414     3.64764752092773     3.90937513319069       0.928253029752     2.47100944676483                    7 7.02651261286683e-15                   15                    0                    0                    0 
61     5.02548972635958     3.41793769710435     2.68208265719079     0.99829374256475    0.948515293576799                    1 2.09249687546394e-15                   13                    0                    0                    0 
61     5.23138322184441     3.08809782351229     2.73000993778004     0.99153252289505     1.53268989493482                    4 5.76509670147975e-15                   14                    0                    0                    0 
61     5.29244376094028     2.80470874245691     2.75166341368118       0.928253029752     2.37958562435548                    7 8.17741844304282e-15                   17                    0                    0                    0 
61     5.36996703064853     3.72933813413105     2.74854167276541                    1     3.44746208796251                    2 4.40359054790819e-15                   21                    0                    0                    0 
52     7.29260743622147     3.06516721657346     2.62381294603829                    1     3.04754146689849                    7 1.38766050313132e-14                   20                    0                    0                    0 
52     7.65993146195184     2.79786728087891     2.74075502828827     0.99829374256475    0.972130519601117                    3 1.34583924321637e-14                   13                    0                    0                    0 
52     7.90802338213423     3.08018152755633     2.85135594682987     0.99153252289505     1.53800024338078                    2 1.03343436941698e-14                   16                    0                    0                    0 
52     8.14811605387416     3.20860043355575     2.95319271461782       0.928253029752     2.13476374159816                   12 7.41362713499885e-15                   17    0.440985324287537    0.409671495000028     0.25195678102759 
203      2.2974180141318     4.51121401872661     2.74684564585382     0.96532406315995      3.0841484729447                    5  6.7225921229161e-15                   21                    0                    0                    0 
203     2.70909411759458     4.56600842341179     2.76463504418913     0.99829374256475    0.918552810026732                    3 8.17919007117994e-15                   10                    0                    0                    0 
203     2.82936323719705     4.19022458444445     3.01835436023891                    1     3.04512203935063                    7 9.64209093948028e-15                   18                    0                    0                    0 
203      3.0639154506499     4.72629167423736     2.72110805223785     0.99153252289505     1.47913616648603                    6 8.47226877280781e-15                   12                    0                    0                    0 
203     3.27228282840835     4.90962749895386      2.6346346749823       0.928253029752     2.17144356917919                    7 6.97448148879928e-15                   12                    0                    0                    0 
262     7.05338093413065      4.6488737415006      3.7606237013393     0.96532406315995     2.88755938269869                    9 1.01055843172075e-14                   19                    0                    0                    0 
30     9.81710753552509     4.10838666131906     2.79295795931455       0.928253029752     2.66329193622169                    4 9.47212086327684e-15                   13                    0                    0                    0 
30     9.43459875419311     4.65518721080344     2.87573404517128     0.99829374256475     0.95997028857986                    1 2.54613981651154e-15                   12                    0                    0                    0 
30     9.68513616679744      4.3539991904939     2.87520561623608     0.99153252289505     1.51567671644154                    3 5.60153952884709e-15                    9                    0                    0                    0 