ITEM: TIMESTEP
0
ITEM: NUMBER OF ATOMS
0
ITEM: BOX BOUNDS pp pp fm
0.0000000000000000e+00 2.0000000000000000e+01
0.0000000000000000e+00 2.0000000000000000e+01
0.0000000000000000e+00 1.1000000000000000e+02
ITEM: ATOMS mol x y z radius c_voro[1] c_coordination c_kinetic c_voro[2] c_order[1] c_order[2] c_order[3] 
ITEM: TIMESTEP
10000000
ITEM: NUMBER OF ATOMS
4500
ITEM: BOX BOUNDS pp pp fm
0.0000000000000000e+00 2.0000000000000000e+01
0.0000000000000000e+00 2.0000000000000000e+01
0.0000000000000000e+00 1.1000000000000000e+02
ITEM: ATOMS mol x y z radius c_voro[1] c_coordination c_kinetic c_voro[2] c_order[1] c_order[2] c_order[3] 
36    0.830966199038145    0.475384710554421    0.999023579147423                    1     3.83487076788653                    3 3.16291587896822e-16                   14                    0                    0                    0 
36    0.179317083718586    0.502582469949408    0.998014747896921     0.98284524179719     1.47780379438855                    2 1.69691319443716e-16                   14                    0                    0                    0 
36    0.407011962200144    0.183540888188037    0.990582780002985    0.991259378759715     1.10533816652872                    0  2.8104375365342e-16                   12                    0                    0                    0 
149     6.01619279138057   0.0282575656673161    0.999060507386031                    1     3.80097131300883                    5  6.3995490574585e-16                   16                    0                    0                    0 
68     7.97735587218265    0.412586094616579    0.998813978499237                    1     4.38280151859814                    3 2.44424645998781e-16                   19                    0                    0                    0 
165    0.703070188580837     2.42347304681648    0.955525891247096     0.95572419725813     2.82800353375656                    8 2.09811028174724e-16                   14                    0                    0                    0 
89     3.76170178509304     2.16505339849561    0.959943648244026     0.95572419725813     3.50526706117073                    3  2.4710301923745e-15                   13                    0                    0                    0 
89       4.043202025623     1.50941273545674    0.998225726605922                    1     3.95968113194344                    4 6.24929588419728e-16                   21                    0                    0                    0 
89     4.10562310878978     2.02027984844708    0.988242744429275    0.991259378759715    0.992599150330424                    1 1.15607134227572e-15                   10                    0                    0                    0 
89      4.4954895011692     1.97918448616588    0.986484897084534     0.98284524179719     1.37224761577259                    2 1.04074321619243e-15                   12                    0                    0                    0 
89     4.77813399325996     2.02436513246178    0.956789242298198     0.92366677176975     2.61627369381084                    4 1.64784985100307e-15                   12                    0                    0                    0 
155     6.64991683114451     1.87563556202522    0.953995320135098     0.95572419725813     2.92885660268923                    4 8.62941996481711e-16                    9                    0                    0                    0 
155     6.82525339132742     2.19712058676814     1.03110930107091    0.991259378759715     1.08764274902372                    0 8.11446641352187e-16                    9                    0                    0                    0 
60     9.01459162006249     2.03002644646801     1.01324668451155     0.92366677176975     2.66994758444189                    5 3.56532359074741e-16                   14                    0                    0                    0 
60     9.87290110914742     1.76520949164494    0.999291333751446                    1     4.17765914487459                    5 4.75941337637387e-18                   17                    0                    0                    0 
60     9.65631583349675     2.23204640141984    0.987656183445912    0.991259378759715     0.93112989469867                    3  6.9445378205047e-17                    9                    0                    0                    0 
60      9.2979949530663     2.07300602484616     0.98782350015111     0.98284524179719      1.3653443504784                    3 1.92383549540931e-16                   11                    0                    0                    0 
60     9.93844173833521     2.47661168625673     1.01285324273927     0.95572419725813     3.44289906428979                    5 1.71476515824216e-16                   13                    0                    0                    0 
165     0.84331786791255     2.76870299535414    0.990007300825822    0.991259378759715     1.01034668902026                    1  3.0604701367248e-16                    9                    0                    0                    0 
165     0.88383282672786     3.15854666879457    0.981750720067776     0.98284524179719      1.3476562029359                    2 4.19495035545841e-16                    8                    0                    0                    0 
165    0.841875678740599     3.44003730339565    0.939163726903797     0.92366677176975     2.58722641298641                    5 4.00851476246521e-16                   12                    0                    0                    0 
165     1.34995491038614     2.70888889500734     1.05872730726551                    1     4.23674098627466                    3  1.8358046584527e-15                   19                    0                    0                    0 
155     7.05896608618445     2.51092425095884      1.0067503328558     0.98284524179719      1.4596189354003                    2 7.66586199112723e-16                   13                    0                    0                    0 
155     7.25590646205588     2.70311741906165    0.922564193229432     0.92366677176975     2.59555705956658                    3 6.98300554701407e-16                   11                    0                    0                    0 
266     2.30293321346547     4.56823923857645    0.992247509268485     0.92366677176975     2.36442608761555                    6 1.52162912012333e-16                   13                    0                    0                    0 
266     2.57280728284917     4.46880394249088    0.982674621090009     0.98284524179719     1.40581841113622                    3 1.94454400240192e-16                   11                    0                    0                    0 
266     2.93168456321969     3.93161488239397     1.07224200756773                    1     3.91938355250395                    3 1.51870751854244e-15                   17                    0                    0                    0 
266     2.96361671021117     4.43874521469143    0.989898685179115    0.991259378759715    0.993216517610098                    1 3.19829837518596e-16                    7                    0                    0                    0 
266      3.3279439057182     4.52258259386099     1.00660452244085     0.95572419725813     3.38026105783371                    3 5.24331401406887e-16                   14                    0                    0                    0 
232     5.54317736051398     3.78765631732132    0.998637332345486                    1     3.72502362164252                    6 5.00977031025623e-18                   21                    0                    0                    0 
232      5.2360860329636     4.43205228730286     1.03059562343543     0.95572419725813     2.97953371375681                    5 1.48078440824827e-16                   12                    0                    0                    0 
232     5.58612788515101     4.30021614599577     1.01910518873993    0.991259378759715      1.0203289950461                    1 8.06498259149654e-17                   12                    0                    0                    0 
232     5.97553379225378     4.27565851387377    0.981056733476172     0.98284524179719     1.34740155027135                    3 9.49271010103969e-17                   11                    0                    0                    0 
232     6.25264591768812     4.33448872230328     0.93047108202557     0.92366677176975     2.58087769133617                    8  1.3887331832997e-16                   16                    0                    0                    0 
195     8.68605304592292     3.91780925874552    0.955341082832279     0.95572419725813     2.82245582190481                    6 6.66716446747728e-16                   13                    0                    0                    0 
195     8.40531043397202     4.62039079714412    0.990821646848316     0.98284524179719     1.38277819446113                    3 5.47167784509109e-16                   13                    0                    0                    0 
195      8.2025022473832     4.82281543790591     0.96428608803369     0.92366677176975     2.70732274410775                    6 4.07599924539908e-16                   16                    0                    0                    0 
195     8.60119618645646     4.28081994556718    0.987970075725723    0.991259378759715     0.99336921366922                    1 6.52165560277138e-16                    8                    0                    0                    0 
195     9.05125243907026     4.53045995701285     0.99848163330766                    1      4.1482106142643                    6 6.75333075714009e-16                   15                    0                    0                    0 
173    0.595330828920265      5.2681826863088    0.919939128181119     0.92366677176975     3.10659783108332                    5   3.018973471758e-16                   11                    0                    0                    0 
173    0.530901097694162      5.3139482660534     1.19664357893063     0.98284524179719      1.4387882664918                    5  2.2280119534145e-16                   13                    0                    0                    0 
130      6.4974719748232     6.16451222685648    0.923310673817208     0.92366677176975      2.4920297571185                    5 1.30202305019766e-16                   13                    0                    0                    0 
130     6.75631824351829     6.24796334459486     1.01736146726679     0.98284524179719      1.4956485005281                    2 1.43502433210313e-16                    9                    0                    0                    0 
106     2.07259661061261     6.39960699475263    0.921594624760072     0.92366677176975      2.6271085507845                    8 1.03922069388078e-16                   18                    0                    0                    0 
106     1.46030547509714     7.05242866516645    0.998674988448372                    1     3.62065742233819                    5 1.78088277690164e-16                   18                    0                    0                    0 
106     1.97681160060189     6.65449413244117     1.01470107200969     0.98284524179719     1.36262579787282                    5 1.37112768058469e-16                   12                    0                    0                    0 
106     1.95376011611317     7.02437757870841     1.14253920393413    0.991259378759715     1.05371945427415                    2 1.55614619920202e-16                   11                    0                    0                    0 
106     2.04449101639015     7.36622101327203     1.26482193579371     0.95572419725813     2.88592153732228                    7 1.51256363442407e-16                   13                    0                    0                    0 
150     4.57933409510138     6.27147966440114    0.998016053970928                    1     3.71387957028022                    6 1.38740669587019e-16                   13                    0                    0                    0 
150     4.47542772772923      6.7736506744165     1.04283794813254    0.991259378759715     1.02672908510893                    2 6.52919265604119e-17                   12                    0                    0                    0 
150     4.79225615563486      6.9521777300488     0.95457734422652     0.95572419725813     2.85003028164285                    6 6.34225568919294e-17                   14                    0                    0                    0 
150     4.11616392433437     6.69394079394476     1.17798075131413     0.98284524179719     1.63827231865731                    2 9.09668433119111e-17                   12                    0                    0                    0 
150     3.85833926139951     6.71097314017024      1.3046589814167     0.92366677176975     2.51614649436784                    7 1.17026881849913e-16                   15                    0                    0                    0 
130     7.11803413910399     6.39710750790513     1.04196537260784    0.991259378759715    0.990140488620148                    2 1.40526395578246e-16                    7                    0                    0                    0 
130     7.44630083876015     6.55399340793662    0.954387494165604     0.95572419725813     3.10288220139825                    5 1.39343070082938e-16                   12                    0                    0                    0 
253     9.12555561508362     7.39193468812618     1.00171329941855     0.92366677176975     2.66728116401574                    4 1.62927325586282e-16                   11                    0                    0                    0 
3     3.53197154165895     8.53559714723815     1.00468088580001     0.95572419725813     3.22821751624123                    8 1.74911851678806e-16                   16                    0                    0                    0 
3     3.85226279277562       8.728454548199    0.988505785115183    0.991259378759715    0.976405158001911                    0 1.22903398473932e-16                   10                    0                    0                    0 
107      6.2732672532179      8.1480914098311     1.11827836337028     0.95572419725813      2.9649419098996                   10 2.71153501087688e-16                   15                    0                    0                    0 
107     6.56890983161851     8.36880420549685     1.05564112049491    0.991259378759715     1.05214683590439                    0 1.88481155516269e-16                    9                    0                    0                    0 
107     6.93222248736076     8.49468413177283    0.979182758817865     0.98284524179719     1.39203442440475                    1   1.839007550755e-16                   11                    0                    0                    0 
107     7.21501453462691     8.50824375822742    0.927648050573195     0.92366677176975     2.56389618435672                    5 1.87030254551988e-16                   15                    0                    0                    0 
253      9.2003717824723     7.66906910578363    0.981462687994548     0.98284524179719     1.42921071774093                    0 1.92965210644801e-16                    9                    0                    0                    0 
253     9.08937250617995     8.41722439164911      1.0219464078981     0.95572419725813      3.0701847100398                    4 1.69281771799178e-16                   13                    0                    0                    0 
253     9.19930526714669     8.06102310957246    0.989120637003064    0.991259378759715    0.997667796281997                    1 1.93140066338731e-16                    9                    0                    0                    0 
253     9.71388940429202     8.07080964521306    0.998535953842182                    1     3.77913315633986                    3 1.97130774293571e-16                   14                    0                    0                    0 
136      1.0489534362649     8.92819239922989    0.922641377121566     0.92366677176975     2.77889357801631                    4 1.96309142034197e-16                   10                    0                    0                    0 
136    0.838750383828897     9.10869666336643     1.00038402303835     0.98284524179719     1.43380676977318                    2 1.38212761298226e-16                    9                    0                    0                    0 
136    0.589684868955373     9.41082623936071     1.01966643315154    0.991259378759715     1.02947724893276                    1 8.19165168630068e-17                   10                    0                    0                    0 
136    0.417838042383868     9.73668204608853    0.953873136033383     0.95572419725813     3.12954999628542                    4 6.79941742169726e-17                   10                    0                    0                    0 
136    0.263180752402817      9.1345070337212     1.30606478711146                    1     3.56311082849005                    7 1.37687929919527e-16                   20                    0                    0                    0 
3     3.72560102389373     9.21975119013229     1.07548661412979                    1     3.72869400034334                    6 5.78375799995179e-16                   18                    0                    0                    0 
3     4.23309196815516     8.82117278228215    0.980747500459991     0.98284524179719     1.38647555548653                    2 1.29974099641504e-16                   13                    0                    0                    0 
3     4.52052977961569     8.81028128830153    0.989227566635607     0.92366677176975     2.50988234052098                    7 1.27830556283385e-16                   15                    0                    0                    0 
107     6.43010860391321     8.83866267660832     1.21359204641415                    1      3.7893791415798                    4 1.17481625854181e-16                   15                    0                    0                    0 
198     2.69019835909103     1.11905168181346      2.5939283577996     0.98284524179719     1.36846750414136                    4 2.75145127033234e-16                   12                    0                    0                    0 
102     5.23363133132746      1.0728639030721     2.57641820694511     0.98284524179719     1.38327713444809                    3 6.50416588835495e-16                   14                    0                    0                    0 
102     5.46784177826521     1.17310335672148     2.44259537593963     0.92366677176975     2.37129975409431                    8 6.34172503683586e-16                   17                    0                    0                    0 
68     7.80486216137262    0.539286114463753       1.680551176142     0.95572419725813     2.96005927955476                    6 2.13170363627354e-16                   18                    0                    0                    0 
68      7.9331220316847     0.24754469114727     1.48439194461294    0.991259378759715    0.963621302650744                    3 1.85293321691926e-16                   11                    0                    0                    0 
43     9.73744782002913    0.449438118742868      2.4855881258195    0.991259378759715    0.974569217999886                    1 5.23937510164531e-16                   10                    0                    0                    0 
43     9.46900436006335    0.680205193392768      2.6069419992079     0.95572419725813     2.70784426245692                    8 2.09152424556014e-16                   17                    0                    0                    0 
43     9.95996417391897    0.222240412399344     2.25633848631275     0.98284524179719     1.45516778961764                    1 1.14748195967915e-15                   17                    0                    0                    0 
198     2.34619831420707     1.27446055804971     1.93726394349563     0.95572419725813     2.95187871181233                    9 3.61634827256063e-16                   15                    0                    0                    0 
198     2.52712814770525     1.25471573441998     2.26424503441297    0.991259378759715    0.916210087250895                    3 3.42594413473024e-16                   10                    0                    0                    0 
198     2.55762167157431     1.73831650256603     2.43797384818306                    1      3.4111762448557                    7  6.0277776665976e-16                   21                    0                    0                    0 
155     6.74628334454183      2.2841341643073     1.53228155460883                    1     3.48434030909129                    5 7.04882655437991e-16                   18                    0                    0                    0 
231     4.21147213081175     3.69107423405283     2.48775222361062     0.92366677176975     2.23528712497808                    8 3.78954819729393e-16                   15                    0                    0                    0 
231     4.34377944207002     3.44337041185752      2.5505902970774     0.98284524179719       1.418791535516                    3 3.03761476918563e-16                   15                    0                    0                    0 
247     7.44446375301617     3.85616350657326     2.55108337296033                    1     3.48038254890897                    5 7.61229017112436e-16                   23                    0                    0                    0 
247     7.29871715751098     4.74234125570744     2.57264438567549     0.92366677176975      2.2077398721059                    9 4.05769590641195e-16                   17                    0                    0                    0 
247     7.22673728898002     4.46736265828909     2.61755208107945     0.98284524179719     1.34531513706007                    4 5.16831966286607e-16                   13                    0                    0                    0 
173    0.550669786299111     5.35773180728564     1.58571930831879    0.991259378759715    0.999559345861495                    1 1.88277752676868e-16                   11                    0                    0                    0 
173    0.676243859953036     5.36651941414774     1.93813387458915     0.95572419725813     2.61996744605453                    4 2.79994806216017e-16                   19                    0                    0                    0 
173    0.107178281025455     5.61906196011433     1.58747847207219                    1     3.44110388237076                    5 1.88875403762479e-16                   15                    0                    0                    0 
41     5.61298231835814      5.5688105149576     2.51945600241879     0.95572419725813     2.57584981722181                    8 1.29994818745264e-16                   19                    0                    0                    0 
142     8.86263772568739     6.01809842962218     2.25313484464539     0.95572419725813     2.58959546741541                    8  1.4886637841337e-16                   15                    0                    0                    0 
142     8.97489652882568     5.79467393086915      2.5315617668382    0.991259378759715    0.926765130359948                    5 8.60735159742023e-17                   12                    0                    0                    0 
130      7.0819947740214     6.42242819551446     1.55484087954982                    1     3.44215771869616                    5  1.5981843355356e-16                   17                    0                    0                    0 
172      2.4462832581346     8.72254180667063     2.60717004939901    0.991259378759715    0.916746550850867                    4 5.85595771776974e-16                    8                    0                    0                    0 
215     7.99911564976738     7.88225789322159     2.56697919831611                    1     3.44558296015534                    6 2.84850082413513e-16                   23                    0                    0                    0 
172     2.25091463584604     8.93152642253868     2.36592613074377     0.95572419725813     2.78929583818946                    7 7.99909930957497e-16                   23                    0                    0                    0 
82     9.99028340676779     9.25896223344292     2.52379499496981     0.95572419725813       2.776695517133                    7 3.47351472772772e-18                   17                    0                    0                    0 
82     9.42552926353706     9.69248181330083     2.46308162298483                    1     3.22858378969877                    9  1.3003987116488e-18                   21                    0                    0                    0 
235    0.100364998063604     1.14149178821404     3.24253592681805                    1     3.49627505468618                    9 3.10760152523652e-16                   24                    0                    0                    0 
235    0.804547411246589     1.23688095574854     3.16769865244411     0.95572419725813     2.75874651996639                    6 1.53144991038442e-16                   16                    0                    0                    0 
198     2.77573772797125    0.950799649953249     2.81115013793675     0.92366677176975     2.25689752056343                   11 1.91537835715981e-16                   19                    0                    0                    0 
102     4.62031347064576    0.635734927986152     2.65676472912437     0.95572419725813     2.55239951080945                    8 4.46599330571727e-16                   15                    0                    0                    0 
102     4.91092298864346    0.871108924270056     2.67044999318737    0.991259378759715     0.97686982401889                    1 5.59008533067365e-16                   10                    0                    0                    0 
102     4.96154934014115     1.00405392253712     3.16516593052734                    1     3.45969191856033                    4 5.57597601164519e-16                   24                    0                    0                    0 
43      9.9516399061375    0.247772512882717      2.9080026051461                    1     3.34062344174374                    6 2.91365411187668e-16                   21                    0                    0                    0 
235    0.495255262492532     1.37190140928417     3.00598922051987    0.991259378759715     1.04532758949805                    2 1.60259604656782e-16                   12                    0                    0                    0 
235    0.134200163982964     1.80184214678456     2.63441543224206     0.92366677176975     2.36700662665423                    5 1.31208184967436e-16                   20                    0                    0                    0 
235    0.248945166618516     1.59366424651383     2.79660845869009     0.98284524179719     1.44690541326525                    1 1.45611007024627e-16                   18                    0                    0                    0 
21     7.29309162701278     1.59983917698541     3.24220081989221     0.92366677176975     2.44373998540153                    7 2.98846365116859e-16                   15                    0                    0                    0 
21      7.0716975580972     1.66132983069424     3.41544803451492     0.98284524179719     1.37460188973049                    5 3.37139520678367e-16                   12                    0                    0                    0 
21     6.81362359714683     1.66342132783201     3.71054323787926    0.991259378759715    0.972599054349534                    2 3.24274785438211e-16                   12                    0                    0                    0 
21     6.66797549198526     2.14249794761714     3.59115529661147                    1     3.72008284381086                    3 3.89902877194605e-16                   19                    0                    0                    0 
269     8.89798591396108     2.48823638490799     2.84002432227735     0.95572419725813      2.9148098785369                    5 2.47767170757819e-16                   18                    0                    0                    0 
145     1.60067181479437     3.35160243317948     3.13042031200556                    1      3.5105997537864                    3 3.56677197964172e-16                   19                    0                    0                    0 
145     2.20104282000111     3.59034364050472     3.04128784096249     0.98284524179719     1.42626478583841                    2 4.02977756077352e-16                   10                    0                    0                    0 
145     1.86900800492887     3.70174514729884     2.86513362275163    0.991259378759715    0.977819238801059                    2 1.98963353283445e-16                   10                    0                    0                    0 
145      2.4776055825731     3.54510155541456      3.1066883280731     0.92366677176975     2.14461991477931                   10 4.80137899950379e-16                   15                    0                    0                    0 
231     4.24073293637572       2.846541501135     2.79259024409165                    1     3.30657337797662                    5 1.54204624625714e-16                   20                    0                    0                    0 