ITEM: TIMESTEP
0
ITEM: NUMBER OF ATOMS
0
ITEM: BOX BOUNDS pp pp fm
0.0000000000000000e+00 2.0000000000000000e+01
0.0000000000000000e+00 2.0000000000000000e+01
0.0000000000000000e+00 1.1000000000000000e+02
ITEM: ATOMS mol x y z radius c_voro[1] c_coordination c_kinetic c_voro[2] c_order[1] c_order[2] c_order[3] 
ITEM: TIMESTEP
10000000
ITEM: NUMBER OF ATOMS
4500
ITEM: BOX BOUNDS pp pp fm
0.0000000000000000e+00 2.0000000000000000e+01
0.0000000000000000e+00 2.0000000000000000e+01
0.0000000000000000e+00 1.1000000000000000e+02
ITEM: ATOMS mol x y z radius c_voro[1] c_coordination c_kinetic c_voro[2] c_order[1] c_order[2] c_order[3] 
24     1.12446773929179    0.611920705397207     1.00095185333756     0.92366677176975     2.52384388896104                    7 1.57651374283776e-14                   12                    0                    0                    0 
24     1.33744878328914    0.804474234103082    0.981632301146657     0.98284524179719      1.4185957015603                    1 1.79554687295601e-14                    9                    0                    0                    0 
24     1.98670750811248    0.864025811822259    0.999068561617988                    1       4.088137973662                    3 1.83167964682291e-14                   21                    0                    0                    0 
24     1.54881511825879     1.13451471330766    0.990866869464809    0.991259378759715     1.02295196163969                    1 1.68579133705278e-14                   10                    0                    0                    0 
232     4.73384878514677    0.177700175160562    0.934985165024644     0.92366677176975       2.717423627388                    6 1.13568459368404e-14                   13                    0                    0                    0 
167     9.02986539745849     1.05600933907005    0.921423741633742     0.92366677176975     2.55125468838397                    6 1.53777010053208e-14                   17                    0                    0                    0 
24      1.6492960196706     1.49333752135967      1.0253904468412     0.95572419725813     2.99242045103979                    5  1.3768884631032e-14                   16                    0                    0                    0 
95     3.47470007458138     2.32010757621619    0.989118826402085    0.991259378759715    0.967752414775841                    1 1.76024956538165e-14                    8                    0                    0                    0 
95     3.65368161030627     1.97717977537308     1.05278872517253     0.98284524179719     1.47903077057374                    1 1.98766546282062e-14                   10                    0                    0                    0 
95      3.7109593000722     1.70401923353163     1.12288591666977     0.92366677176975     2.64506908443733                    4 2.16106177946013e-14                   11                    0                    0                    0 
84     5.76884121090234     1.79614608233624    0.999704412724732                    1     3.58600804779022                    4 1.74610047672306e-14                   14                    0                    0                    0 
84      6.1562060876306     2.32086927354648    0.998551053090357     0.98284524179719     1.42308077638321                    3 2.30056869216985e-14                    9                    0                    0                    0 
84      6.2619716740744      1.9434763674508     0.98983567130002    0.991259378759715    0.995705891658211                    3 1.91964122363953e-14                   10                    0                    0                    0 
84      6.4634198797822     1.62860172318586      1.0075747620433     0.95572419725813     3.00934290980805                    5 1.58064541957938e-14                   16                    0                    0                    0 
167     8.41533880178676     1.70675724605054    0.998249357144947                    1     3.82992969442599                    3 1.50249462951776e-14                   18                    0                    0                    0 
167     8.91359994272584     1.28849052301555     1.04489792826793     0.98284524179719     1.49438319822271                    3  1.6192296670655e-14                   14                    0                    0                    0 
167     8.85911964987702     1.62134656839045     1.24471402740862    0.991259378759715     1.08649547665295                    3 1.36853005487782e-14                   12                    0                    0                    0 
19    0.929645738511501     3.55663950626053    0.997794295578532                    1      4.1152147664729                    3 9.03008426273971e-15                   15                    0                    0                    0 
19     1.34528743184879     3.45458498561454     1.28381547705661    0.991259378759715    0.987892572609901                    2 8.74563117399025e-15                   11                    0                    0                    0 
19     1.57254636648023     3.65879412447619     1.03817401686892     0.98284524179719     1.45300644509636                    3 1.17792726806985e-14                   11                    0                    0                    0 
95     3.21311386836068     2.58571695752695    0.956462895811336     0.95572419725813     3.01130072643012                    4 1.95424755329028e-14                   12                    0                    0                    0 
95     3.92622590917304     2.56715474553903    0.997684777045599                    1     3.55712591574734                    7 1.70047779297027e-14                   19                    0                    0                    0 
84     6.15457282953887     2.60688485542317     1.03022834794629     0.92366677176975     2.58757014889614                    5 2.28340657886711e-14                   11                    0                    0                    0 
39     7.82814400740748     3.56995158275175    0.954772928620678     0.95572419725813     2.90828208664958                    4 1.29245422809747e-14                   11                    0                    0                    0 
146     9.74994351599864      3.5629759886006    0.953565558142784     0.95572419725813      3.1415497144277                    9 1.28169041111918e-14                   17                    0                    0                    0 
19     1.78827891649726     3.80964061235239    0.921916390983254     0.92366677176975     3.36664941467018                    5 1.22607177511553e-14                   12                    0                    0                    0 
243     4.11566155599011      4.5013574565606    0.943719732883844     0.92366677176975     2.85280801638336                    5 1.68051464547901e-14                   13                    0                    0                    0 
243     4.40058191331385     4.48951432116106    0.982335296410794     0.98284524179719     1.41931479326842                    2 1.96346466898554e-14                   16                    0                    0                    0 
243     4.77379301918753     4.37068214932138    0.999071727327764    0.991259378759715    0.946857140480112                    3 2.19343279782597e-14                    8                    0                    0                    0 
243     4.93815405530525     4.85849977005446    0.998248687854945                    1     3.81589686151616                    3 1.44295525722518e-14                   15                    0                    0                    0 
243     5.08191323076296     4.15866093265118    0.986782080107602     0.95572419725813     3.20779470079319                    5 2.37872251403077e-14                   14                    0                    0                    0 
39     7.35769011612208     4.10598568856992    0.998512562060524                    1     3.81432633543583                    4 1.55185261563211e-14                   17                    0                    0                    0 
39     7.84211790305137     3.93548327737816     1.03372485698488    0.991259378759715     1.02282083485687                    2 1.49057444323168e-14                   10                    0                    0                    0 
39     7.96389129280785     4.28719054307289      1.1568547215025     0.98284524179719     1.55621419068065                    4 1.50427033375438e-14                   13                    0                    0                    0 
39     8.11559709345923     4.50182435263369     1.27402429717041     0.92366677176975     2.53363962694581                    6  1.2788992233824e-14                   17                    0                    0                    0 
90     3.32953853902992     6.17118936708816    0.941346316885133     0.92366677176975     2.60515974114306                    5 7.36837365326289e-15                   11                    0                    0                    0 
178     6.58960245965735     5.90218574795938    0.953620430744536     0.95572419725813     3.10452568036578                    3 1.29746640765062e-14                    9                    0                    0                    0 
178     6.91027839576272     6.08602853595665     1.01202308334601    0.991259378759715     1.09654650982659                    0 1.43242311946049e-14                   10                    0                    0                    0 
178     7.28353423542597     6.20367785952105    0.989078856369752     0.98284524179719      1.4428229415051                    1 1.40122110012919e-14                   12                    0                    0                    0 
178     7.56236307643117     6.22725458884412      0.9219249519626     0.92366677176975     2.57448389105251                    7 1.17739098232016e-14                   14                    0                    0                    0 
153     9.44366759870425     6.04783638297728     1.00299483992795     0.92366677176975     2.83219385630954                    4 1.41793263611416e-14                   13                    0                    0                    0 
177    0.231957398613744     6.90685990051395    0.921548560681852     0.92366677176975     3.24517416629981                    4 1.39807321634101e-14                   15                    0                    0                    0 
177    0.401184942223523     7.08646912759811     1.06958097485965     0.98284524179719     1.34826405627342                    5 1.49584952907578e-14                   12                    0                    0                    0 
90     2.47400658338637     6.42174911381568     1.05226446986512                    1     4.19583319586616                    3 2.64351390637976e-14                   17                    0                    0                    0 
90     3.11985539688204     6.36403826678977    0.982007273650034     0.98284524179719     1.38512688770973                    1  1.0029193706567e-14                   12                    0                    0                    0 
90     2.90679790300129     6.69305510535969    0.988499343735702    0.991259378759715    0.953760682537852                    1 1.28413681601749e-14                   11                    0                    0                    0 
90     2.79984206313223     7.04994626088936    0.953410200763683     0.95572419725813     2.94053063862886                    6 1.41579592935003e-14                   13                    0                    0                    0 
268     5.01046624108636     7.03609863370329    0.954538290630783     0.95572419725813     3.10763738181888                    3 2.22546822752432e-14                   13                    0                    0                    0 
268     5.04140554131168      7.3450004319545     1.16349889759624    0.991259378759715     1.06000889554172                    1 3.06045846507881e-14                    9                    0                    0                    0 
153     9.47368101301628     6.33328889248776    0.982328650326497     0.98284524179719     1.35765226306152                    2 1.59178009633747e-14                    7                    0                    0                    0 
153     9.41061340708741     6.72014694517699    0.989473360108137    0.991259378759715    0.966816486257612                    2  1.5045302384346e-14                    8                    0                    0                    0 
153     9.24572021014654        7.05451243308      1.0219086900034     0.95572419725813     3.09666498974137                    5 1.27967406433694e-14                   11                    0                    0                    0 
153     9.91717106400817     6.81124477076578    0.998516869595727                    1       3.722082661708                    4 1.54397367175764e-14                   16                    0                    0                    0 
177    0.836108419942728     7.56725470722047    0.998348255489057                    1     3.91973657095971                    5 1.52756255776409e-14                   15                    0                    0                    0 
268     4.67168538395456     7.66359262583965    0.999830703014966                    1     4.22448838076459                    2 3.22040766121949e-14                   19                    0                    0                    0 
247     6.88505615676894     8.20162687020913    0.978764889963061     0.92366677176975     2.68986022056925                    4 2.68795511255556e-14                   16                    0                    0                    0 
247      7.1341629570069     8.34554709764727    0.985383184922989     0.98284524179719     1.44745812765851                    1 3.06538343122202e-14                   10                    0                    0                    0 
247     7.40600438468677     8.62800094288911    0.988511480648288    0.991259378759715    0.961464834614558                    1 2.91874231204512e-14                    8                    0                    0                    0 
247     7.75231981915052     8.30436654275081     1.18927914134242                    1      3.7830505834923                    4 3.05555840585083e-14                   16                    0                    0                    0 
56     2.31998272475164      8.8981609593874    0.954294908013785     0.95572419725813     3.11815931414271                    4 2.87803810176875e-14                    9                    0                    0                    0 
56     2.59375545465051     9.13761981607503     1.04232924704371    0.991259378759715       1.083626124822                    1   1.233892337158e-14                    9                    0                    0                    0 
56     2.87149748139072     9.41329280321575     1.01884534878775     0.98284524179719      1.5233998831401                    0 7.43518893545929e-15                   11                    0                    0                    0 
56     3.05773879109815     9.61067864951928    0.923116388388874     0.92366677176975     2.74796998335523                    3   6.801853114413e-15                   14                    0                    0                    0 
14     5.46662565786876     9.49865032269605    0.998318739250409                    1     3.63858747646057                    7 2.28733810831784e-14                   18                    0                    0                    0 
247     7.57390992134081     8.96215383930805    0.974667019589925     0.95572419725813     2.98805544282446                    5 2.45863737335296e-14                   11                    0                    0                    0 
269     9.46800406634061      9.2116044079358    0.954513925769212     0.95572419725813      3.0868948650004                    4 2.66885734217858e-14                   13                    0                    0                    0 
269     9.35543424350224     9.91578211307894    0.999617989003837                    1      3.8362917946127                    2 2.38979035765038e-14                   17                    0                    0                    0 
269     9.66050316732963     9.50837321026887     1.07663874145926    0.991259378759715     1.04973417886748                    2 3.38137592329658e-14                    8                    0                    0                    0 
269     9.92750070668861     9.73368197098393     1.25450385622691     0.98284524179719     1.65040019640683                    4 4.39882448240868e-14                   13                    0                    0                    0 
261     3.33321041743342    0.284581381717931     2.24232181427209     0.92366677176975     2.24521732578212                   10 1.02080165666861e-14                   15                    0                    0                    0 
261     3.21135905193882    0.151948794546681     2.46675860530239     0.98284524179719     1.41321839535295                    3 1.57297125411584e-14                   16                    0                    0                    0 
212     4.95617889766125     1.09235388043532     2.59427824960423     0.92366677176975     2.37359531010923                    7 3.03501170362173e-15                   15                    0                    0                    0 
212     5.72190966032618     0.62322629610207     2.61864337179085                    1        3.42566701525                    5 2.43912691947496e-14                   23                    0                    0                    0 
35     7.40197788565399     2.49192267197233     2.47348299273949     0.95572419725813     2.51213965736761                   11 9.59072468019161e-15                   18                    0                    0                    0 
167     8.91644049600122     1.92212505410753      1.4598621616185     0.95572419725813     2.76317853124709                    6 1.04148417147218e-14                   17                    0                    0                    0 
19     1.22025579551077      3.2691654324817     1.58386343281623     0.95572419725813     2.65790179769784                    6 5.78292183854761e-15                   19                    0                    0                    0 
148     5.07592594794038     2.96596303633338     2.52585624468681     0.95572419725813     2.59812393143957                    7 2.75971455586967e-14                   15                    0                    0                    0 
263    0.365512993691223     4.85914836520854     2.29430513762331     0.92366677176975     2.14176049672506                   12  9.2939954957699e-15                   19    0.466326303639304    0.316510637670412    0.232522053346944 
224      2.8449263058956     3.91031903570472     2.43259050366983     0.92366677176975     2.20332831287897                   10 2.27890809658188e-14                   18                    0                    0                    0 
224     2.88134852262662     4.19430678854236     2.46149396346349     0.98284524179719     1.34967651259001                    5 2.71092193546334e-14                   17                    0                    0                    0 
224     2.83192867375985     4.92008565664448     2.25054653903204     0.95572419725813     2.65963657157256                    7 3.20083103935676e-14                   14                    0                    0                    0 
224     2.87865923656256     4.58213774114798      2.4043306651386    0.991259378759715     1.02012878218251                    2 3.03549913563884e-14                   16                    0                    0                    0 
263    0.548601454257838     5.07968553405057     2.26875118712614     0.98284524179719     1.35185156422819                    4 1.41412335237353e-14                   16                    0                    0                    0 
263    0.801109464777414     5.37016445409555     2.34324564573436    0.991259378759715    0.994658198745864                    1 1.83976598219336e-14                   15                    0                    0                    0 
263     0.96980789786419     5.35977637180156     1.85702122727735                    1     3.97815658390758                    8 3.58482823195278e-14                   20                    0                    0                    0 
263     1.01606735661145     5.61961492160698     2.52103671841249     0.95572419725813     2.91802379174536                    4 1.82255352365628e-14                   18                    0                    0                    0 
161     4.41091483517384     6.03771698023007     2.52493492412696                    1     3.27722331764894                    7 1.10508752013337e-14                   24                    0                    0                    0 
205     8.45403471143634     6.04274846320709     2.60333089912309     0.95572419725813     2.73012585646118                    7 1.02577377165434e-14                   16                    0                    0                    0 
177     0.62611540473942     7.25053332203911     1.34558269561701    0.991259378759715    0.961577029958799                    2 1.23625518886833e-14                   12                    0                    0                    0 
177    0.807664556845124     7.31521577552253     1.66636016069943     0.95572419725813     2.86771348324301                    7 8.55538287723244e-15                   17                    0                    0                    0 
178     6.84849759622828     6.33997183523717     1.45550610696843                    1     3.44675106999187                    5 1.49686394939201e-14                   17                    0                    0                    0 
268     5.14049584659114     7.59568210049625     1.44815225728842     0.98284524179719     1.37126790908924                    2 3.67731026798037e-14                   10                    0                    0                    0 
268     5.24637614029571     7.71327560385263     1.68851066257367     0.92366677176975     2.45490923201857                    5 3.50125167099224e-14                   18                    0                    0                    0 
159    0.974425187609858     9.09224802003958     2.24952663742895     0.92366677176975     2.25476168103153                    9  1.2413460170002e-14                   15                    0                    0                    0 
159    0.734908722340419     9.12531233813626     2.40557036640466     0.98284524179719     1.36740857007918                    5 1.51641349629169e-14                   13                    0                    0                    0 
159    0.385460587941433     9.24275838756793     2.53891259365243    0.991259378759715    0.965835497724372                    3 1.76434600169769e-14                   11                    0                    0                    0 
159   0.0621784955808088     9.42686985666244     2.57933229470744     0.95572419725813     2.81744296950435                    6 2.00207639942937e-14                   16                    0                    0                    0 
56     2.76729668688691     8.98991076286467      1.5038991063322                    1     3.53346800029829                    4 3.89565153776901e-14                   19                    0                    0                    0 
215     4.39035486566524      9.1248973407463     2.58486426340416     0.95572419725813     2.63492826033148                    8 1.42561100743064e-14                   12                    0                    0                    0 
114     6.68741919734229     9.45831159361429     2.55546112630944     0.92366677176975     2.24885723788273                   11 8.25828382290697e-15                   21                    0                    0                    0 
116    0.134897269514619    0.688050038637639     2.63391602731028     0.95572419725813     2.57625347901912                    7 3.41609770978336e-14                   14                    0                    0                    0 
116    0.694903792014395    0.360143396783809     2.93298543556558                    1     3.66252699300497                    5 5.52820732399686e-14                   22                    0                    0                    0 
116    0.222628824171402    0.496835763349218     3.36153981606654     0.98284524179719     1.43250214308897                    2 2.66537274566428e-14                   15                    0                    0                    0 
116    0.222963387209709    0.561389373423696     2.97486108348868    0.991259378759715    0.966611240233912                    3 3.47148214863624e-14                    9                    0                    0                    0 
116    0.164313743911118    0.505304636079986     3.64321100953585     0.92366677176975       2.309164867758                    9 1.69623571427736e-14                   22                    0                    0                    0 
212     5.11937193822684    0.867633218745007     2.66964195002462     0.98284524179719     1.36660300263192                    5 4.74722114350257e-15                   13                    0                    0                    0 
212     5.25176191396735     0.15132772550916     2.87718817956872     0.95572419725813     2.79980017930413                    8 1.22290374363552e-14                   21                    0                    0                    0 
212     5.24420151358773    0.511005871434063     2.77415144718928    0.991259378759715     0.92296692031139                    5 8.54590651080018e-15                   13                    0                    0                    0 
140     8.90098116532516    0.399547083722693     2.81494429676493     0.92366677176975     2.19993541614717                    7 1.29782875732911e-14                   18                    0                    0                    0 
140     9.06724555642301    0.608143380975841      2.9229015505439     0.98284524179719     1.33397535388942                    4 1.73488680050479e-14                   13                    0                    0                    0 
140     9.19748246304134    0.927401247670378     3.10945043270718    0.991259378759715    0.943761392635514                    3  2.1643177251835e-14                    8                    0                    0                    0 
140     9.67668360196602    0.739460979026759     3.11454774133706                    1     3.53533504890563                    5 1.91710505458291e-14                   22                    0                    0                    0 
140     9.21064894231407     1.24704370825271     3.30360871283427     0.95572419725813     3.07919647868481                    4 2.35846665733758e-14                   21                    0                    0                    0 
113     1.70750549246124     1.99411515317513     2.87499361996865     0.92366677176975     2.18330688657157                    6  4.1939637636733e-14                   13                    0                    0                    0 
113     1.99024765054249      1.9530279524875     2.90934104498013     0.98284524179719     1.44129533627251                    2 4.38037339721316e-14                   14                    0                    0                    0 
113     2.38047387715732      1.9746973288732     2.87865468117722    0.991259378759715     1.04156843873265                    0 4.34416006214789e-14                   12                    0                    0                    0 
113     2.43759453155174     1.75601709429603     3.34114516166018                    1     3.41144028281395                    6 4.03785108625666e-14                   18                    0                    0                    0 
113     2.72520506360936     2.06574086771067     2.76501674889024     0.95572419725813     2.75616952696569                    8 4.85130797891398e-14                   18                    0                    0                    0 
35     7.40269331025883     1.53233399470561     2.83697526345502     0.92366677176975     2.16013030511532                    8 1.63063695823049e-14                   17                    0                    0                    0 
35     7.32612867512181     2.17814246086229     2.66277370277206    0.991259378759715    0.975291053615951                    3 1.69490062515231e-14                   10                    0                    0                    0 
35     7.33783209458003     1.80972735155775     2.79626924554145     0.98284524179719      1.3696787461875                    2 1.99799382400205e-14                   11                    0                    0                    0 
35     6.85966220935673     2.24724391833464      2.8692083984388                    1     3.35009922263719                    6  4.1893736459451e-14                   22                    0                    0                    0 
203      1.2910403073056     3.71305761195091     3.40774635988044     0.92366677176975     2.13326403625263                   11  1.7637328122913e-14                   22                    0                    0                    0 
148     4.45673991776779     2.96589784070037     2.88248103034647                    1      3.4634486689636                    6 3.46794718513058e-14                   22                    0                    0                    0 