ITEM: TIMESTEP
0
ITEM: NUMBER OF ATOMS
0
ITEM: BOX BOUNDS pp pp fm
0.0000000000000000e+00 2.0000000000000000e+01
0.0000000000000000e+00 2.0000000000000000e+01
0.0000000000000000e+00 1.1000000000000000e+02
ITEM: ATOMS mol x y z radius c_voro[1] c_coordination c_kinetic c_voro[2] c_order[1] c_order[2] c_order[3] 
ITEM: TIMESTEP
10000000
ITEM: NUMBER OF ATOMS
4500
ITEM: BOX BOUNDS pp pp fm
0.0000000000000000e+00 2.0000000000000000e+01
0.0000000000000000e+00 2.0000000000000000e+01
0.0000000000000000e+00 1.1000000000000000e+02
ITEM: ATOMS mol x y z radius c_voro[1] c_coordination c_kinetic c_voro[2] c_order[1] c_order[2] c_order[3] 
224     1.50622989651394    0.491774786027704    0.999055848884654                    1     3.55233657193108                    5 3.05220018852693e-16                   17                    0                    0                    0 
224      2.2180750671913    0.448967398616147    0.954149696804625     0.95572419725813     2.89170296819502                    6  2.1934013490594e-16                   14                    0                    0                    0 
224     1.93496679680748     0.20699828009412    0.990793242509165    0.991259378759715    0.966756884421696                    2 2.57068296704368e-16                   10                    0                    0                    0 
339    0.197358220183713      2.2741103498912    0.981990556389609     0.98284524179719     1.44846183460035                    1 1.84003862968669e-15                   11                    0                    0                    0 
339    0.392377308651899     2.06506204549167     0.94916688841255     0.92366677176975     2.42802129200247                    5 2.65822167387251e-15                    9                    0                    0                    0 
108     2.24517949025847     2.35636583856704     1.05213459029872     0.95572419725813     3.63713318406992                    3 2.90395251955251e-15                   14                    0                    0                    0 
352      4.7331803402408     1.35019161957122    0.998429257092077                    1     3.69592050043342                    4 9.21843674529694e-16                   16                    0                    0                    0 
352     4.10727982390541     1.35251611220975     1.18181531367152     0.98284524179719     1.67472968108162                    3 1.11319286358715e-15                   15                    0                    0                    0 
352     4.31894520723586       1.652364335373     1.04405998239506    0.991259378759715     1.07319161954827                    2 8.79241749320151e-16                   11                    0                    0                    0 
352     4.43302628252867     1.99707800043761    0.953505612513984     0.95572419725813     3.67733255220138                    3  8.4253867066074e-16                   15                    0                    0                    0 
39     7.34790022565091     1.42862544048794    0.921648587082628     0.92366677176975     2.77975886893068                    5 2.56730122413352e-15                    9                    0                    0                    0 
39     7.12328475393847     1.58162460330488     1.01625396570283     0.98284524179719     1.53873404188989                    2 2.30295115620831e-15                   10                    0                    0                    0 
39     6.81469638187033     1.82222463414513     1.04018228603071    0.991259378759715      1.1732836755971                    0  1.7654319250307e-15                   10                    0                    0                    0 
39     6.54981805025166     2.07270903054693     0.95568889501722     0.95572419725813     3.60358169179954                    1 1.32857919773963e-15                   13                    0                    0                    0 
339   0.0138855505985925      2.6205064380748    0.987927924102001    0.991259378759715    0.974851456837511                    2 5.76889921602294e-16                    9                    0                    0                    0 
215     8.64100468767443     3.31663028065102    0.953525544627119     0.95572419725813     3.38247426688358                    5 5.47049042289356e-16                   16                    0                    0                    0 
215     9.00600332514266      3.3908215913594    0.989771104146702    0.991259378759715      1.0323815675013                    1 8.06525379529397e-16                    9                    0                    0                    0 
215      9.3903824723794     3.35360605169931     1.05726478905922     0.98284524179719     1.59187352951627                    1 9.97085463417182e-16                   10                    0                    0                    0 
215     9.64981216216358     3.25250733417912     1.12997185192974     0.92366677176975     2.67094459056961                    6 9.54203371979314e-16                   13                    0                    0                    0 
126     0.68208114029965     4.71576017970332    0.948773480154722     0.92366677176975     2.64433291025348                    5 1.35379143058779e-16                   16                    0                    0                    0 
126    0.956688984959818     4.63660149374693    0.982470152158426     0.98284524179719     1.38671905267585                    2 8.98289665191658e-17                    8                    0                    0                    0 
126     1.29183925569598     4.43337985089636    0.990406311511116    0.991259378759715     1.01102707380484                    1 3.40177735177534e-17                   10                    0                    0                    0 
126     1.54158315893387     4.15556860808481    0.968247956801873     0.95572419725813     3.19899533595544                    3 2.67632867321035e-17                   16                    0                    0                    0 
126     1.56586788545647     4.86907506140983     0.99810386160608                    1     3.71585966839005                    3 1.90957693922072e-16                   15                    0                    0                    0 
21     3.68800988241134     4.33996775131969    0.953972401470543     0.95572419725813     3.43339158939999                    3 1.40843720878506e-15                   13                    0                    0                    0 
21     3.97638100385183     4.23041305501049     1.16582603340855    0.991259378759715     1.11829999254607                    2 2.06439274275306e-15                   11                    0                    0                    0 
21     4.38397044509781     4.49592457524219    0.997434410408417                    1     4.28592113103941                    5 1.90794732609482e-15                   15                    0                    0                    0 
173     6.30666834708422     4.14123855677096    0.998588255331565     0.95572419725813     3.49556881423151                    2 1.78477564020441e-15                   14                    0                    0                    0 
173     6.38979686661469     4.85092982649578    0.999318235436146                    1     3.66065525684867                    4 3.11926431050387e-15                   11                    0                    0                    0 
173     6.59539744010035     4.37911949253423    0.989087319938934    0.991259378759715     1.10887469491372                    0 2.01734896228051e-15                   11                    0                    0                    0 
173     6.95711606162387        4.52924391675     1.00669467143663     0.98284524179719     1.49656455780108                    3  1.9036154581558e-15                    9                    0                    0                    0 
173     7.24015840078344     4.56482121047998     1.04454070204899     0.92366677176975     2.41274976670071                    7 1.49219075031348e-15                   12                    0                    0                    0 
215     9.04541013395322     3.90399939846029    0.998540391116661                    1     3.80769138856014                    3 1.31071536413808e-15                   18                    0                    0                    0 
324     3.09787740635227     6.18943528524572     1.18601845916823                    1     3.87979059729649                    3 2.77796002104587e-15                   16                    0                    0                    0 
63     8.47074752838283     6.04216847862893    0.998983743525115                    1     4.11664490060305                    2 1.57772753686239e-15                   14                    0                    0                    0 
122    0.657516260610175      6.5614011079971    0.923276415542202     0.92366677176975     2.45326196715585                    6 1.20229351760666e-15                   12                    0                    0                    0 
122    0.391769818106632     6.63143645537463     1.00862809996459     0.98284524179719     1.47604904057531                    3 1.34845144630037e-15                   10                    0                    0                    0 
122   0.0514050201278672     6.65180750319115     1.20208235150158    0.991259378759715     1.11406149478141                    1 1.38627864790218e-15                   10                    0                    0                    0 
324     2.53597020483728     6.56557005863961    0.955030340209517     0.95572419725813     2.84504323169501                    4 1.93627214079315e-15                   10                    0                    0                    0 
324     2.90154226026241     6.62900228332767     1.00376966411545    0.991259378759715     1.00438741055509                    0  1.5930818243817e-15                    7                    0                    0                    0 
324     3.25894386040427     6.78918709990345     0.98666283830277     0.98284524179719      1.3975510979779                    1 1.10132011682101e-15                    7                    0                    0                    0 
324     3.48411828287448     6.95661401130499    0.922821312431019     0.92366677176975     3.14475655729189                    2 6.99301928716729e-16                   12                    0                    0                    0 
231     5.71203421170757     6.68482235058523     1.02507768368291     0.95572419725813      3.5417002460879                    3 1.84969170376788e-16                   17                    0                    0                    0 
231     5.81095667103066     7.04412315419736    0.991028071499838    0.991259378759715     1.01917769352776                    1  3.7578983774583e-16                    9                    0                    0                    0 
231     5.37182104954823     7.31261139033008    0.998459873561101                    1     3.96618208158812                    3 1.27571741842079e-15                   12                    0                    0                    0 
231     6.02083871181885     7.37512822931558    0.982490394537731     0.98284524179719     1.43316772245458                    2 7.68628328195143e-16                   10                    0                    0                    0 
63     7.63565182680582     6.36437598123452    0.922724679162707     0.92366677176975     2.51318382409147                    9 1.18360406764831e-15                   15                    0                    0                    0 
63     7.90538708775408     6.36648229417588     1.02297179415732     0.98284524179719     1.44269175851269                    4 1.33854222807769e-15                   11                    0                    0                    0 
63     8.22527519868128     6.42366387912139     1.24226517198185    0.991259378759715     1.03604829797169                    3 1.18566828024669e-15                   12                    0                    0                    0 
265      1.5598158745542     8.17011847111667     1.00341376329031     0.92366677176975     2.35587672416407                    7 3.77777108416185e-15                   11                    0                    0                    0 
265     1.72148541786846     8.40724364437284    0.982303514794176     0.98284524179719     1.46180034921851                    1  3.2264156032229e-15                    9                    0                    0                    0 
265     2.33845391200731     8.61813276177788    0.998519641365659                    1     3.87693435838688                    3 2.91082228253938e-15                   18                    0                    0                    0 
231     6.23289850379699     7.56863470817578     1.00241321771117     0.92366677176975     2.52577228953331                    6 9.85048557004147e-16                   14                    0                    0                    0 
244      8.0968694865009     8.67060372890291    0.988682609843162    0.991259378759715    0.981224855395745                    1 9.08160431473364e-16                   10                    0                    0                    0 
244     7.95028306245686      8.3280272886296     0.95410083166297     0.95572419725813     2.93635927813346                    7 7.32500687961767e-16                   13                    0                    0                    0 
244     8.60708970705366     8.60459054018737      1.0059697188084                    1     3.60235453215298                    5 1.92926708023266e-15                   18                    0                    0                    0 
245   0.0575227898312545     9.92452519530495    0.999442387177616                    1     3.71395544637725                    4 1.70900776794123e-15                   14                    0                    0                    0 
265     1.84919069772801     8.77783627595773     0.98864272925452    0.991259378759715     1.11248990120253                    1 1.78801133520661e-15                   12                    0                    0                    0 
265     1.86233130132965     9.15049665272057     1.02016517608438     0.95572419725813     3.12356915455354                    3 7.40155252259746e-16                   15                    0                    0                    0 
117     5.39753321678106     9.23638473480658    0.933887764687358     0.92366677176975     2.90168110311829                    4 2.07407828535427e-15                   13                    0                    0                    0 
117     5.58912833196523     9.44559863060156    0.982177403983061     0.98284524179719     1.46847200835303                    2 2.54610428910896e-15                    9                    0                    0                    0 
117     5.91583246060283     9.66201951116397    0.992860920164159    0.991259378759715    0.984155227546518                    1 2.62747597577984e-15                    9                    0                    0                    0 
117     6.27039815906062     9.77546766805587     0.95471937192213     0.95572419725813     3.13536961746236                    3 2.26934578485529e-15                   14                    0                    0                    0 
244     8.14057276305782     9.06017521178934    0.992118605937496     0.98284524179719     1.41697833880971                    0  1.2475703530535e-15                   11                    0                    0                    0 
244     8.09774299360659     9.34344544252583     0.96501475296059     0.92366677176975     2.48558638693953                    6 1.63204329568055e-15                   12                    0                    0                    0 
93    0.533026634336167     1.12523842947179     2.53136494035159     0.92366677176975     2.20555391174472                    8   1.224826376084e-15                   16                    0                    0                    0 
352     3.90564103313169     1.19243740410558     1.31037517088267     0.92366677176975     2.29074075914809                    7 1.34525409370669e-15                   16                    0                    0                    0 
2     5.47237046458249    0.540144526849841     2.61565971114534     0.95572419725813      2.8430637657809                    7 1.59049155402013e-15                   15                    0                    0                    0 
357     8.53141025514931     1.14576268268783     2.45837285599629                    1     3.65934376989476                    6 3.90345322828102e-15                   22                    0                    0                    0 
357     9.02172212995263     1.20422573144343     2.31291634691801    0.991259378759715    0.928083059469454                    5 3.28499525624619e-15                   13                    0                    0                    0 
357     9.22375459672641    0.992242988604564     2.54591483539244     0.95572419725813     2.56003901057534                   12 3.28553196797222e-15                   17    0.318065476535638    0.417739140274426    0.298322076799583 
108     2.13244517053255     2.23617276568889     1.74741667717691                    1     3.47559729086433                    4 3.16980943363103e-15                   20                    0                    0                    0 
108     2.40587038521937     2.46079047096132     1.37356269882469    0.991259378759715     1.00284792776049                    2 2.75272820867967e-15                   10                    0                    0                    0 
39     6.65923070888675     1.59360524148731      1.4743998081402                    1      3.5736532051174                    5 2.26460028266777e-15                   18                    0                    0                    0 
357     8.91741003542454     1.47127354729827     2.04553614251154     0.98284524179719     1.28320788001463                    8 2.82585335165809e-15                   13                    0                    0                    0 
357     8.91882276458234     1.68686944370191     1.85493854213981     0.92366677176975      2.4564153841271                   15 2.13271077829705e-15                   18    0.497451414771257    0.381179538369068    0.242761683795809 
108     2.66114072102268     2.60141512855087     1.63576392701394     0.98284524179719     1.42957182692823                    5 2.30541174284595e-15                   12                    0                    0                    0 
108     2.89517329545466     2.71054394512935     1.76277056902435     0.92366677176975     2.27209224881226                   11 1.83234613608901e-15                   17                    0                    0                    0 
206     5.28991256811019     2.58853894744556     2.60615569480007                    1     3.40278554263352                    6 3.61181223543274e-15                   21                    0                    0                    0 
206     5.76281507834072     3.35230140341535     2.61308946044581     0.92366677176975     2.22838063792443                   11 2.50239901484001e-15                   17                    0                    0                    0 
21      4.2738373033629      3.9438240236293     1.69748699590096     0.92366677176975     2.27427224785402                    9  2.9614616202404e-15                   15                    0                    0                    0 
21      4.1900168044232     4.07272175159411     1.45423706002473     0.98284524179719     1.43429446037661                    4 2.86209154452219e-15                   13                    0                    0                    0 
11     4.56430678456807     5.87773740610265     2.39097343434105     0.92366677176975     2.40515486721711                    6 2.23924386976322e-15                   16                    0                    0                    0 
11     4.74145307550806     5.69869944923795     2.53016981801351     0.98284524179719     1.35277838229674                    4 2.79224338933329e-15                   13                    0                    0                    0 
11     5.32315196639504     5.21803655985274     2.59563499819223     0.95572419725813     2.61131205918984                   10 2.34700284770443e-15                   17                    0                    0                    0 
129     7.18718981471474     5.55856646740831     2.59968831602064     0.92366677176975     2.25743731315954                   12 2.14886076584416e-15                   18    0.461258371083526    0.460529382395999    0.206092258801054 
204     9.63422396581856     5.43438452501918     2.60755065410827     0.98284524179719     1.38192651689419                    4 6.75010945417471e-16                   14                    0                    0                    0 
63     8.45676112527074     6.53827198881639     1.51304431354864     0.95572419725813     2.63150667847657                    8  9.0070658128533e-16                   17                    0                    0                    0 
107     3.50528322970871     8.02977495313181     2.46440877641133     0.95572419725813     2.75957683430028                    7 3.05845782780423e-15                   16                    0                    0                    0 
107     3.55609360001497     8.38955241340522     2.55396647778958    0.991259378759715      1.0135676341762                    2 2.76016814509624e-15                    9                    0                    0                    0 
107     3.91709928196851     8.56542516623499     2.23190292646285                    1     3.71594438735607                    3 2.28648875995503e-15                   19                    0                    0                    0 
275      6.7809841186648     8.66733633645841     2.48289483324715                    1     3.44019413702887                    9  9.8187822918508e-16                   25                    0                    0                    0 
213     9.88548660415904     9.93192636339955     1.65758807390197     0.95572419725813     2.88258667034177                    4  1.6690970049115e-15                   18                    0                    0                    0 
93    0.624472717392415     1.12614561351197     2.80421622316013     0.98284524179719     1.32759915725881                    4 1.48647890957625e-15                   15                    0                    0                    0 
93    0.655941081600671     1.07119349841694     3.19109828507427    0.991259378759715    0.931957509963099                    6 1.87623398264897e-15                   13                    0                    0                    0 
93    0.582683251597203    0.974764093857283     3.54518408937432     0.95572419725813     2.58696179715266                    8 2.27757426229981e-15                   16                    0                    0                    0 
93     1.16233628543319     1.16151485580948     3.17142066790196                    1     3.43129642483904                    5 2.23862827441231e-15                   19                    0                    0                    0 
313     2.90563622147805     0.39169331038447     2.73477218674357     0.95572419725813     2.59428860449236                    8 5.94652226743068e-16                   17                    0                    0                    0 
313     2.83838970161993   0.0277546843704722      2.7901678417386    0.991259378759715    0.963459819762481                    2 1.72822409449533e-15                   12                    0                    0                    0 
2     4.83341104406261    0.665660575630814      2.9098521012319                    1     3.42668235178495                    6 2.57332706101796e-15                   23                    0                    0                    0 
2     4.88519578936845    0.064064340430347     2.66330065566292     0.98284524179719     1.44084424649711                    1 1.00962306427736e-15                   14                    0                    0                    0 
2     5.16015017473645    0.343170607522069     2.67699373303342    0.991259378759715    0.954448245705192                    2 1.24810851025681e-15                   10                    0                    0                    0 
295     7.01517376231547      1.0970819675503     3.63791760178956     0.92366677176975     2.67770948333528                    7  2.3316276605754e-15                   17                    0                    0                    0 
295     7.13263942062082     1.20469407964027      3.8775683561581     0.98284524179719     1.33530395580791                    7  2.2932826487342e-15                   14                    0                    0                    0 
266       2.879134387622     2.14482112466607     3.59988997850275                    1     3.52750981269667                    5 1.79671320349699e-15                   20                    0                    0                    0 
266     3.56145202374004     2.06547468380987     3.40311760312464     0.95572419725813     2.71382368962717                    7 1.59408920033064e-15                   18                    0                    0                    0 
266     3.36217928317207     2.00900764439344      3.7147968370348    0.991259378759715    0.969621825547083                    2 1.79021286611072e-15                   12                    0                    0                    0 
206     5.82695699268699     2.42525660071503     3.04830356964524     0.95572419725813     2.56256871693382                    9 4.66432691665234e-15                   12                    0                    0                    0 
58     0.66083358514283     2.99744663843707     3.61560651100606     0.92366677176975     2.33846508955584                    7 1.57730885645192e-15                   18                    0                    0                    0 
58    0.540920378953759     3.03458755157685     3.35666171539946     0.98284524179719     1.36574446869602                    4  1.4718098544107e-15                   18                    0                    0                    0 
58    0.285431845459984     3.08509275104291     3.06363858182502    0.991259378759715    0.973147838066219                    1 9.98483187032907e-16                   12                    0                    0                    0 
58    0.657834759505619     3.26814475142974     2.75902523108832                    1     3.57729724623008                    4 8.87769117354146e-16                   26                    0                    0                    0 
206     5.73466789738546     2.71615861420578     2.83173755670216    0.991259378759715    0.902858730639445                    4 4.10730663445771e-15                    9                    0                    0                    0 
206     5.72103101126937     3.07359607494803     2.67129996844847     0.98284524179719     1.37121881298273                    7 3.28558820330107e-15                   14                    0                    0                    0 
289      7.7279116489825     3.66996931568369     2.62273810986728     0.95572419725813     2.71289752092134                    9 8.75119184004793e-16                   16                    0                    0                    0 
289     7.69954489307801     2.95601327632622     2.62862733589281                    1     3.36886619548437                    8 4.79001455245894e-15                   24                    0                    0                    0 
289     7.93600996369128     3.39279715269552     2.76385075993102    0.991259378759715     0.97641017576746                    2 1.99361042815127e-15                   12                    0                    0                    0 
289     8.23231445846774     3.19097088947682     2.92246200978941     0.98284524179719     1.43715778954978                    2 3.73565361324967e-15                   16                    0                    0                    0 
289     8.48776876764746     3.11334778627357     3.02983417280466     0.92366677176975     2.40993153983483                    4   4.466776402686e-15                   17                    0                    0                    0 
310     2.38865914201096     4.12144348299871     2.83941526589584     0.92366677176975     2.42655440726932                    7 8.65526571084147e-16                   20                    0                    0                    0 
310      2.3616758265434     4.79385047975532     2.81897918346211    0.991259378759715    0.974782042134788                    1 2.55150763046607e-15                   11                    0                    0                    0 
310     2.41467113083629     4.40573881749774     2.80321345875327     0.98284524179719     1.40921712363642                    2 1.55186526242763e-15                   16                    0                    0                    0 
310     2.84837688285501     4.87492349083786     2.67224640816199                    1     3.38462548999298                    7 3.07069697826021e-15                   22                    0                    0                    0 
136     4.31191575199684     3.79906442304199     3.83229812606647     0.98284524179719     1.33549267548078                    4 3.10257217706935e-15                   15                    0                    0                    0 