ITEM: TIMESTEP
0
ITEM: NUMBER OF ATOMS
0
ITEM: BOX BOUNDS pp pp fm
0.0000000000000000e+00 2.0000000000000000e+01
0.0000000000000000e+00 2.0000000000000000e+01
0.0000000000000000e+00 1.1000000000000000e+02
ITEM: ATOMS mol x y z radius c_voro[1] c_coordination c_kinetic c_voro[2] c_order[1] c_order[2] c_order[3] 
ITEM: TIMESTEP
10000000
ITEM: NUMBER OF ATOMS
4500
ITEM: BOX BOUNDS pp pp fm
0.0000000000000000e+00 2.0000000000000000e+01
0.0000000000000000e+00 2.0000000000000000e+01
0.0000000000000000e+00 1.1000000000000000e+02
ITEM: ATOMS mol x y z radius c_voro[1] c_coordination c_kinetic c_voro[2] c_order[1] c_order[2] c_order[3] 
74     0.12287606936616    0.142285273124372    0.999032991508478                    1     3.47721589643323                    4 8.30850995614535e-14                   10                    0                    0                    0 
22     1.87078173233228     1.03835419160249    0.963616559364507     0.96532406315995      3.0748996789749                    6 6.58985654250235e-14                   12                    0                    0                    0 
22     2.54432794695431      1.1076668646564    0.998946000075621                    1     3.75355162291393                    2 7.32613574202743e-14                   15                    0                    0                    0 
132     4.50608204870117     0.27029999335777     1.02501051941146     0.99153252289505     1.70543200095579                    1 6.33493565161122e-14                   15                    0                    0                    0 
132     4.66510716382025     0.49298431833953    0.926881329583415       0.928253029752     2.58925311405079                    4 4.54371813420446e-14                   14                    0                    0                    0 
132     4.26517587281195   0.0620153906432925     1.25318860037603     0.99829374256475    0.972172837959895                    0 1.04370978417294e-13                   11                    0                    0                    0 
10     8.65574617697651    0.621463034901207    0.965275252369136     0.96532406315995     3.74889505150193                    2 3.93816476719609e-14                   15                    0                    0                    0 
181    0.485167394432831     2.35375716833471    0.926824337675786       0.928253029752     2.44956347874652                    7 7.95018238926391e-14                   11                    0                    0                    0 
22     2.14298812040513     1.35052070343382    0.998998119914019     0.99829374256475    0.904477841291188                    3 7.25990274177224e-14                    8                    0                    0                    0 
22     2.28986780993864     1.71101659305862     1.04318599476417     0.99153252289505     1.61382714226764                    2 7.08143837813224e-14                   13                    0                    0                    0 
22     2.30111955374011     2.00044553564956     1.06790277380426       0.928253029752     2.53467166800253                    6   5.800628851506e-14                   14                    0                    0                    0 
109     4.25878306632283     2.33525374722239     1.05854010264832     0.96532406315995     3.29541503160764                    4 5.96896080322738e-14                   16                    0                    0                    0 
4     6.06282393669653     1.76750516790118    0.989935780066662       0.928253029752     2.42803360842302                    8 3.61541421817886e-14                   13                    0                    0                    0 
4     6.31045174975412     1.91977795352256    0.990249899412163     0.99153252289505     1.59097648787458                    3 4.52245165793661e-14                   10                    0                    0                    0 
4      6.5544280573318     2.22623738542773    0.996705582975503     0.99829374256475    0.953380658542205                    1 4.57598063830113e-14                    9                    0                    0                    0 
4     6.96240812928546     1.99472230050185    0.998867164339988                    1     3.64835974840123                    3 5.49000497715502e-14                   18                    0                    0                    0 
274      9.0250079126055     2.47806808200954    0.925459400318284       0.928253029752      2.5436834196874                    6 3.57570574069893e-14                   12                    0                    0                    0 
274     9.69169037285863     2.46261420016307     1.01178068266574     0.99829374256475      0.9957337633999                    0 4.56550096854286e-14                    8                    0                    0                    0 
181   0.0978635814398601     2.88507582841606     1.06772120405683     0.99829374256475    0.952741867992586                    2 6.17461270423047e-14                    9                    0                    0                    0 
181    0.321519828301047     2.56442407352027     1.04234733483399     0.99153252289505      1.6806505255606                    1 7.86566075808428e-14                   12                    0                    0                    0 
109     4.38945769060902     2.72836559602893      1.0241406761573     0.99829374256475     1.04971458014026                    1 6.36440080394349e-14                   14                    0                    0                    0 
109     4.62609790388182     3.03848324298749    0.987919792290538     0.99153252289505     1.61496640497695                    1 6.11780257245045e-14                   11                    0                    0                    0 
109     3.97606298470586     2.94858775756823     0.99847624935651                    1     3.66475324830182                    3 6.67074466129566e-14                   15                    0                    0                    0 
109     4.87000281185873     3.19603118776543    0.973931415798068       0.928253029752     2.41090988895657                   10 4.95725158549852e-14                   14                    0                    0                    0 
4     6.69456470284578     2.61755646001584    0.991489637606692     0.96532406315995     3.24014111624491                    4 3.94857531911082e-14                   11                    0                    0                    0 
274     9.30422329469877      2.5182358159877    0.995687295503598     0.99153252289505     1.62174323768059                    2 4.40917908547257e-14                   11                    0                    0                    0 
274     9.80787127888682     2.83366424739583     1.27422211540702                    1     3.75908900028529                    4 4.63147218965312e-14                   20                    0                    0                    0 
50     1.20295579515125     4.65507165250239    0.963947803157447     0.96532406315995     3.10297833516485                    6 4.19230338421398e-14                   15                    0                    0                    0 
50     1.80051858235248     3.78143143445957    0.927103616439138       0.928253029752     2.70738820272254                    7 6.11739514993839e-14                   14                    0                    0                    0 
50     1.51317194167373     4.38304347111358     1.01457106467998     0.99829374256475    0.933005298722798                    2  5.5701065803968e-14                    9                    0                    0                    0 
50      1.7268698300493     4.05565231236077    0.989436634331912     0.99153252289505     1.66265067310871                    2 6.55925528295787e-14                   13                    0                    0                    0 
50     1.81903194825191     4.65219956146987      1.2470711754235                    1     3.28456624585322                    7 5.33305454169465e-14                   21                    0                    0                    0 
229     3.78197270994319     4.93699007496764    0.998124976103838                    1     3.65348766377966                    3  4.4881498320648e-14                   12                    0                    0                    0 
266     5.74538540665222     4.87316077722462    0.964736354089358     0.96532406315995     3.30658905373347                    4 4.74209389027195e-14                   16                    0                    0                    0 
266     6.15255855471201     4.95073610960847    0.996171985895493     0.99829374256475    0.930677185122655                    2 5.55304124735762e-14                    8                    0                    0                    0 
266     6.30065922500633     4.53743447424777     1.16139787903908                    1     3.65028637517961                    4 6.72898928600424e-14                   15                    0                    0                    0 
260     8.22630761455202     4.19245446237092    0.987268388971359     0.96532406315995       3.322188375456                    6  4.0597320501199e-14                   12                    0                    0                    0 
260     8.48380473943639     4.39800327873174     1.24072650861162     0.99829374256475     1.06769764595492                    1 4.54710676549945e-14                   13                    0                    0                    0 
260     8.53384719737678      4.7966145206931    0.998535517276057                    1     3.69077172239496                    3 4.51620120059689e-14                   15                    0                    0                    0 
229     3.61016792213755     5.84611807437237    0.927921627748074       0.928253029752     2.88049785025635                    4  4.4242516643708e-14                   12                    0                    0                    0 
229     3.68162903005317      5.5846444718379     1.03295257054745     0.99153252289505     1.82678291125713                    1 4.99813170038615e-14                   13                    0                    0                    0 
229     3.78469040847941     5.30574864895342     1.28805837245878     0.99829374256475     0.95678832972676                    1 4.57662894031941e-14                    9                    0                    0                    0 
266     6.49522107879686      5.1405696718134    0.990776509546653     0.99153252289505     1.66325718269587                    2  5.5581797195818e-14                   13                    0                    0                    0 
266     6.68976677819888     5.35226933627623    0.947859652439312       0.928253029752     2.92256833691699                    3  4.4964332461551e-14                   11                    0                    0                    0 
79     1.37188657010999     7.08308730902164    0.997129700285724                    1     3.56974287636323                    6 4.98376661315147e-14                   14                    0                    0                    0 
79     1.84143690943577     6.59506187635895    0.964410055389891     0.96532406315995     3.32594476039774                    4 4.65910373406483e-14                   14                    0                    0                    0 
79      1.4690526348279     6.64748043376229     1.14154940873734     0.99829374256475     1.03654992447733                    2 4.82824326519887e-14                   11                    0                    0                    0 
212     4.74253788793748     7.39249131534936     1.13262036774705                    1     3.80845212045396                    4 5.59300440296822e-14                   17                    0                    0                    0 
212      5.3833034789538     7.38545602785785    0.990817704469116     0.99153252289505     1.72613360996867                    3 4.54977900585834e-14                   16                    0                    0                    0 
212     5.64372926672027     7.26141944585249     0.95476262018523       0.928253029752     2.98622421425249                    5 3.36461632691656e-14                   15                    0                    0                    0 
144     7.83618930013282     7.08581675305548    0.995212689069672     0.96532406315995     3.48092377599546                    1 4.14934226339481e-14                   10                    0                    0                    0 
144      8.2506479709518     7.05401351809023     0.99815684666109     0.99829374256475    0.974370798426962                    1 4.65210000036173e-14                    8                    0                    0                    0 
144     8.61061890677839     6.89961325546741    0.990095694611467     0.99153252289505     1.64787170706458                    1 4.62172046052964e-14                   10                    0                    0                    0 
144     8.82287957187301     6.70099013496966    0.989147133986021       0.928253029752     2.68041505169047                    4  3.8319840946163e-14                   14                    0                    0                    0 
83     2.69451002059677     8.56712959592042     1.18784696267683     0.99829374256475     1.04966972296234                    2  5.0755446416262e-14                   12                    0                    0                    0 
83     3.08502736641146     8.74516882257886    0.998506310713539                    1     3.80116550288401                    3 4.80570999844542e-14                   14                    0                    0                    0 
212     4.91310690768957     8.02801629823016     0.96912380850741     0.96532406315995     3.13070904740314                    5 5.47869459129103e-14                   12                    0                    0                    0 
212     5.10293580268898     7.65906985664781      0.9944144689696     0.99829374256475    0.945898275063769                    0 5.32431417632145e-14                    9                    0                    0                    0 
240     6.83185507672134     8.73402534846369    0.964753728602505     0.96532406315995     3.16602630766357                    5 3.71297556230733e-14                   12                    0                    0                    0 
144     8.36620376552301     7.50865455326467    0.998340056622195                    1     3.46392388330255                    3 4.65057719407943e-14                   10                    0                    0                    0 
83     2.17343963609433     8.90300145554448    0.927402271104067       0.928253029752     3.13286697326285                    6 5.27880545065674e-14                   15                    0                    0                    0 
83     2.43064323795752     8.79438472631163     1.00836736872208     0.99153252289505     1.64626770051605                    2 5.78422080435379e-14                   12                    0                    0                    0 
238     4.65396221678599     9.94907291549325     1.28537862176645                    1     3.47675976338434                    6 4.78161064513978e-14                   15                    0                    0                    0 
240     6.80659505070002     9.14180120600573     1.04141457084232     0.99829374256475     1.07768873668133                    0 4.68765106584927e-14                   13                    0                    0                    0 
240     6.86431886000829     9.52834065999612     1.01423534598747     0.99153252289505     1.67873957934005                    1 4.91135838807596e-14                   12                    0                    0                    0 
240     6.97512620270345     9.78272669800825    0.927539843322003       0.928253029752      2.5018556804437                    6 4.01786286738727e-14                   13                    0                    0                    0 
209     8.98983682271929     9.40710436011761    0.998957569694409                    1     3.72039268290092                    2 4.63898650885551e-14                   15                    0                    0                    0 
209      8.8709257518338     9.75524494646327     1.29000728273026     0.99829374256475    0.890839328683981                    3 4.88722805419561e-14                   10                    0                    0                    0 
10       7.981064961654    0.556814428198575     1.77910067878564       0.928253029752     2.19365652452369                    6  3.2832421882009e-14                   13                    0                    0                    0 
10     8.23519705040295    0.584620939943094     1.64071602253294     0.99153252289505      1.6115628694988                    1 4.08406516818002e-14                   16                    0                    0                    0 
10     8.49380774066397    0.615733127882169      1.3480796601973     0.99829374256475    0.969687132483865                    1  4.2672413463373e-14                   11                    0                    0                    0 
10     8.88467879221096    0.670532570862317     1.60159196406087                    1     3.33528813855894                    4 4.43720582967074e-14                   18                    0                    0                    0 
185    0.792436401844298     1.35172670270546     2.57467121393739                    1     3.14966319895742                    4 6.61880751511827e-14                   19                    0                    0                    0 
205     3.43821661057996     1.64823944890308     2.61854094287673       0.928253029752     2.17637013002198                    7 3.50066161268048e-14                   17                    0                    0                    0 
181   0.0037908436038218     2.87230495075247     1.52711087609896                    1      3.3561701224468                    5 4.52740487648707e-14                   22                    0                    0                    0 
30      3.0197050463742     3.63471109089103     2.61191290832674                    1      3.4341161979487                    3 8.95592591746766e-14                   20                    0                    0                    0 
159     5.84497321272076     3.27420864901162     2.59486857644582     0.96532406315995      2.7614393694592                    9 4.24398302214296e-14                   20                    0                    0                    0 
199     7.95384346044523     2.91284923383834     2.42342272053674     0.96532406315995     2.80850325087652                    9 4.43021995997496e-14                   15                    0                    0                    0 
260     8.72182371772998     4.47892993057531     1.54119504425267     0.99153252289505      1.5818955138589                    4 4.52174749321425e-14                   14                    0                    0                    0 
260     8.86436781725657     4.44887256138575      1.7927588889544       0.928253029752      2.2884079716435                    9 3.75657855580943e-14                   15                    0                    0                    0 
229     3.90550270155317     5.11929346071465     1.63939148541706     0.96532406315995     2.81184035027984                    8  3.6923289454864e-14                   15                    0                    0                    0 
173      5.3842572043622     6.06885493805444     2.43470585526919     0.96532406315995     2.78340370608538                   10 3.29319278301179e-14                   18                    0                    0                    0 
173     5.77646643951462     6.15651581500827     2.54093009992604     0.99829374256475    0.919428017540156                    3 3.69881846316613e-14                   13                    0                    0                    0 
79    0.956510407514152     6.44408066978425      1.5263671451935       0.928253029752     2.26513062857974                    6 3.44191790607824e-14                   13                    0                    0                    0 
79     1.14863151123187     6.58184536516008     1.35720153424824     0.99153252289505     1.71612840008225                    3 4.40746058405677e-14                   13                    0                    0                    0 
92      3.1615532660769     6.61719155540075     2.56378261011538       0.928253029752     2.41940294483255                    8 4.55645998134104e-14                   14                    0                    0                    0 
173     6.11949288313949     6.34341890910367     2.57065534687534     0.99153252289505     1.55383594914488                    4 3.71045595755625e-14                   14                    0                    0                    0 
173     6.32810071948741     6.54071458233105     2.52522604298116       0.928253029752     2.34769129181461                    7 3.11322880138032e-14                   12                    0                    0                    0 
224     1.06872093617746     8.63706015596266     2.47308859030136     0.99153252289505     1.59654265516838                    3  7.0341725037144e-14                   22                    0                    0                    0 
224     1.18723148519513      8.3792046285092     2.41006152908648       0.928253029752     2.24177034051883                   10 5.73833485252148e-14                   18                    0                    0                    0 
83      2.8613024560676       8.282757053559     1.44104381151575     0.96532406315995     3.23126945627263                    3 3.95902272229186e-14                   21                    0                    0                    0 
224     1.03363928748876     9.02408581206213     2.52272645246637     0.99829374256475     1.00494101265624                    1 7.22410031738582e-14                   16                    0                    0                    0 
224     1.13042298342222     9.42737666862753     2.55075331194005     0.96532406315995     2.64013178909005                   13 6.55232710230867e-14                   19     0.36033880095715    0.449334273487598    0.191618480414736 
240     6.48006236259014     9.14025125358212     1.37820181427768                    1     3.58606875481384                    5   5.976366211288e-14                   20                    0                    0                    0 
209     8.84697411225044     9.54431522401055     1.64740212711063     0.96532406315995     2.91566217783003                    5 3.92373013286633e-14                   18                    0                    0                    0 
185     1.65608358061348     1.20352587238307     2.87980918123164       0.928253029752     2.29932400722685                    8 5.82384950036886e-14                   18                    0                    0                    0 
205     3.97279259526147     1.17465688892195     3.21091514054374                    1     3.26555971283683                    7 5.61210139041723e-14                   21                    0                    0                    0 
39      5.7071215203011    0.304324586668065     2.67456652052506     0.96532406315995     2.81874451832322                    7 3.81902714900434e-14                   19                    0                    0                    0 
39     5.87775120210478    0.680070044695576     2.72453617231339     0.99829374256475     1.04048469039767                    0 4.15527784809983e-14                   14                    0                    0                    0 
39      5.9143694100277     1.06751362316023     2.76959256220434     0.99153252289505     1.59951353919913                    4 4.54552987453072e-14                   18                    0                    0                    0 
39     6.32831078321644    0.558212910940337     2.77142485877004                    1     3.24159433960753                    5 2.92848358757084e-14                   20                    0                    0                    0 
254     8.07317324271918    0.462430388940317     3.66750909113223     0.96532406315995     2.78834611625366                    6 2.45681642368463e-14                   17                    0                    0                    0 
254     8.35718192607448     0.23745581535516     3.87127761829228     0.99829374256475    0.924593421678318                    2 3.71400915464876e-14                   13                    0                    0                    0 
254     8.68953114901973    0.209614514405981     3.54139809169635                    1     3.39816712061011                    5 4.34782031831342e-14                   16                    0                    0                    0 
185    0.849875257645678     1.88060602300527     2.99503339311253     0.96532406315995     3.09756509048208                    5 3.50731704513005e-14                   19                    0                    0                    0 
185     1.08882327685234     1.56445002935587     2.86955297453094     0.99829374256475    0.944310662410154                    2 5.31320734685685e-14                   13                    0                    0                    0 
185     1.39185848964337     1.31793936614831     2.83979309117094     0.99153252289505     1.51086551684883                    4  6.4574310167832e-14                   14                    0                    0                    0 
205     3.61906829255138     1.58086791134511     2.83593546620155     0.99153252289505     1.73408967342729                    1  4.5322171547796e-14                   20                    0                    0                    0 
205     3.84828124146271     1.62292214463732     3.15085825584312     0.99829374256475     1.03064470593344                    0 4.80644327334823e-14                   10                    0                    0                    0 
205     4.06374986586954     1.79875062997883     3.45981410914138     0.96532406315995     2.82440647157581                    6 4.35668070228314e-14                   16                    0                    0                    0 
39     5.84288852820543     1.34887268371144     2.78489603541183       0.928253029752     2.26912171723576                   11 4.30487175886552e-14                   19                    0                    0                    0 
199     7.39651220353688     2.31293634129416     3.09511640129329       0.928253029752     2.13266351380864                    8 4.57910583032729e-14                   18                    0                    0                    0 
199     7.62002876745352     2.39520072397978     2.92844441591643     0.99153252289505     1.63116410098173                    2 5.38589740116601e-14                   17                    0                    0                    0 
199     8.22087141016774     2.34052228166503     2.67011048500272                    1     3.43371164607811                    6 5.28662337425006e-14                   21                    0                    0                    0 
30     2.26994615336922     3.08869197015539     2.63806317970925       0.928253029752     2.26283200021834                   12 7.06356362102968e-14                   17    0.442316494262476    0.442340232631362    0.130855493497988 
30     2.45130789589759      3.3127914830042      2.6753989588083     0.99153252289505     1.51536048528852                    6 8.51453734059052e-14                   17                    0                    0                    0 
30     2.58978812669534     3.65810961336899       2.798126756944     0.99829374256475    0.896043542244253                    4 8.40031131281544e-14                   10                    0                    0                    0 
159     5.39402864748176     3.19716538614533     3.09529864546763                    1     3.26182367424859                    6 4.75995561724708e-14                   20                    0                    0                    0 
159     5.52936821101483     3.49150065324617     2.75603237956341     0.99829374256475    0.901678667097149                    4  4.3639933795293e-14                   10                    0                    0                    0 
199     7.83818501094262     2.61139855352561     2.68523699447832     0.99829374256475    0.925133952151388                    2 5.20703777637407e-14                   11                    0                    0                    0 
165    0.601071927837758     4.70875639019543     3.12644589634561     0.99829374256475    0.997944146644224                    1 4.33561358066527e-14                   10                    0                    0                    0 
165    0.457582329538109     4.90446872221137     3.46394185473036     0.96532406315995     2.92269677730099                    6 1.20718882926684e-14                   16                    0                    0                    0 
165    0.692542597406017     4.42304910715697      2.8744777178978     0.99153252289505     1.54398911675017                    3 8.26466050287319e-14                   11                    0                    0                    0 
165    0.730095049985398     4.15600297263968     2.76592906953452       0.928253029752     2.35951104634784                    9 9.37807272248295e-14                   18                    0                    0                    0 