ITEM: TIMESTEP
0
ITEM: NUMBER OF ATOMS
0
ITEM: BOX BOUNDS pp pp fm
0.0000000000000000e+00 2.0000000000000000e+01
0.0000000000000000e+00 2.0000000000000000e+01
0.0000000000000000e+00 1.1000000000000000e+02
ITEM: ATOMS mol x y z radius c_voro[1] c_coordination c_kinetic c_voro[2] c_order[1] c_order[2] c_order[3] 
ITEM: TIMESTEP
10000000
ITEM: NUMBER OF ATOMS
4500
ITEM: BOX BOUNDS pp pp fm
0.0000000000000000e+00 2.0000000000000000e+01
0.0000000000000000e+00 2.0000000000000000e+01
0.0000000000000000e+00 1.1000000000000000e+02
ITEM: ATOMS mol x y z radius c_voro[1] c_coordination c_kinetic c_voro[2] c_order[1] c_order[2] c_order[3] 
37      1.6403725433397    0.230668032320131    0.962856715869641     0.95572419725813     3.19768648293684                    8 1.39411051944659e-15                   14                    0                    0                    0 
37     1.90939791692487    0.489639723425215    0.987374221777057    0.991259378759715    0.920713342455366                    2 1.51418681749578e-15                    8                    0                    0                    0 
37     2.35399621381558    0.230456296993982    0.999103012815113                    1     3.97404328667683                    4 1.73754492492567e-15                   15                    0                    0                    0 
37      2.1012695848687    0.831448856492185     0.98108913488084     0.98284524179719     1.40901569154627                    1 1.39849185325742e-15                   13                    0                    0                    0 
37     2.17142519188054     1.10856261808156    0.947965343444503     0.92366677176975     3.29419848178284                    5 1.09610913655311e-15                   14                    0                    0                    0 
142     4.70116404422143    0.396477014210702     1.04369118642256     0.98284524179719     1.62151426036774                    1 8.97221353616693e-16                   13                    0                    0                    0 
142      4.2492161761663    0.865199629195932     1.00588192680936                    1     4.03423997842049                    3 2.18445500777848e-15                   15                    0                    0                    0 
142     4.41088633561465    0.472003122849138     1.29612411122688    0.991259378759715     1.11110573120589                    1 1.58663368505096e-15                   11                    0                    0                    0 
142     4.94476797834904    0.302824109653499    0.922458813013678     0.92366677176975      2.6600126706674                    3 4.36664936039508e-16                   11                    0                    0                    0 
208     7.20218436922529    0.857604226956815      1.0341291937905    0.991259378759715    0.977752435528961                    5 6.96005456490634e-16                    9                    0                    0                    0 
208     6.83642478220323     0.99653213238241     1.00949823116317     0.98284524179719     1.39407069053106                    3 1.07360594901506e-15                    9                    0                    0                    0 
208     6.59594746598054     1.12806443909823     0.92185723454249     0.92366677176975     2.57041174444596                    4  1.1595845875135e-15                   13                    0                    0                    0 
208     7.55673135170171    0.769129322590141    0.953440129871023     0.95572419725813     2.95746905556944                    4  3.5832266253162e-16                   11                    0                    0                    0 
107     0.37477623050283     1.63273570068694    0.922301007272648     0.92366677176975     2.67367683764334                    5 1.67930588543929e-15                   14                    0                    0                    0 
107    0.126603554074733     1.65617690730432     1.06607814079935     0.98284524179719     1.51037086282569                    2 1.77010562386725e-15                   15                    0                    0                    0 
220     9.29814556794325     1.55312448822661    0.965396818585762     0.95572419725813      2.8761921547737                    5 1.14611063359014e-15                   12                    0                    0                    0 
220     9.56340591838329     1.81604808047981    0.988853750258036    0.991259378759715    0.948379839703972                    1 1.15980106482249e-15                    8                    0                    0                    0 
220     9.75016610784898     2.16066280688737    0.981850558227698     0.98284524179719     1.39146828670164                    1 1.04654705243698e-15                   10                    0                    0                    0 
220     9.81607071194066     2.43879127715446     0.94850136329088     0.92366677176975     2.68373633129969                    5 8.41659879601131e-16                   13                    0                    0                    0 
118     1.04270686393407      3.5383879878311     1.22140622780702    0.991259378759715     1.03679448289188                    2 1.70889182130602e-15                   10                    0                    0                    0 
118     1.19108530588971     3.32385316195888    0.953076686049707     0.95572419725813     3.37392345659714                    4 1.46645900142452e-15                   10                    0                    0                    0 
111     4.53541540218249     2.76249207905507     1.12464297650247     0.92366677176975     2.72763965159837                    8 1.18410702082918e-15                   18                    0                    0                    0 
111     4.80031238713462     2.84980603665292     1.05381295611097     0.98284524179719     1.45602609995803                    2 1.55499129526656e-15                   12                    0                    0                    0 
111     5.41709855469567      2.6450489713953    0.998706939352051                    1     3.67218134789239                    6  2.0752760808905e-15                   19                    0                    0                    0 
111     5.12086831398253     3.06591791214509    0.988795437246898    0.991259378759715    0.957172063035674                    2 1.76431708094864e-15                   10                    0                    0                    0 
111     5.35535668374785     3.35555268207146    0.954604780375195     0.95572419725813     2.88377952452586                    7 1.69901644646841e-15                   13                    0                    0                    0 
242     7.31324679425853     3.32482255775622     1.06616698251552     0.98284524179719     1.36227853993546                    5 7.67411619739373e-16                   12                    0                    0                    0 
242     7.22185388127884     3.55691510241066    0.922669882222553     0.92366677176975     2.48622379649348                    6 5.62442932248436e-16                   14                    0                    0                    0 
242      7.6809326069184     2.78936831608094     1.00714831084669                    1     3.85596859485074                    4 9.07769045932972e-16                   19                    0                    0                    0 
118      1.0897800513618     4.02362778811016      1.0561557817053                    1     4.13919434942359                    3 1.63742471542135e-15                   12                    0                    0                    0 
154     3.00065457129977     3.82695335079982    0.975588194161317     0.92366677176975      2.9841342829971                    7 2.04872726310286e-15                   15                    0                    0                    0 
154     3.15466353094273      4.0689946225759    0.998133586667603     0.98284524179719     1.43828456151893                    1  2.4405791675744e-15                   11                    0                    0                    0 
154     3.44384436028612     4.33356194805528    0.989991046902997    0.991259378759715    0.958077009583537                    2  2.4546141375158e-15                    9                    0                    0                    0 
154     3.10292901885467      4.7191565962276    0.998637199316859                    1     3.78577303400386                    3 2.66483162168314e-15                   20                    0                    0                    0 
154       3.779676879801     4.49444698287855    0.952915166217387     0.95572419725813     3.12188162610282                    8 2.14805760173895e-15                   15                    0                    0                    0 
230      8.6675161012458       4.762441144988    0.955394691419675     0.95572419725813     2.82726593665502                    8   1.829433292288e-15                   13                    0                    0                    0 
230     9.08538096217509     4.20723860385508     1.12186294150849                    1     3.78138647094353                    6 1.37061472185133e-15                   19                    0                    0                    0 
230     9.03494948346332     4.70357030842988    0.995005684410826    0.991259378759715    0.967327165342427                    1 1.40455844128442e-15                   10                    0                    0                    0 
230     9.42437610119845     4.74598152116765    0.979645958913807     0.98284524179719     1.31784418190169                    3 8.68101221737684e-16                    7                    0                    0                    0 
230     9.69012079517247     4.84145805877278    0.924193095931098     0.92366677176975     2.83779380304759                    4 5.45094234296113e-16                   10                    0                    0                    0 
234     1.80154114407815     6.20770516882327    0.973132341325438     0.95572419725813     3.24298355176465                    6 3.50242856311091e-15                   13                    0                    0                    0 
159     6.14338202183919      5.0953299332498    0.955291005493334     0.95572419725813     3.22919623602261                    3 1.68131715531494e-15                   13                    0                    0                    0 
159     6.39955325027139     5.36531454106638    0.994364139376323    0.991259378759715     1.03091050667877                    2 2.01421723695036e-15                    7                    0                    0                    0 
159     6.73533598499126     5.56718054825752    0.980660383201481     0.98284524179719     1.43299008624014                    2 2.10782443865673e-15                    9                    0                    0                    0 
159     7.00937059400875     5.64560222247925    0.941086329941494     0.92366677176975      2.5363759193186                    4 1.81844392407537e-15                   12                    0                    0                    0 
234     1.99605703751663     6.52698734047056    0.989397598727355    0.991259378759715    0.967800409402251                    1    2.30657595348e-15                    7                    0                    0                    0 
234     2.29044668996419     6.78583356632573    0.993989616356366     0.98284524179719     1.49669063193345                    1 2.76094505865839e-15                    9                    0                    0                    0 
234     1.66984589747799      6.8818081418952     1.17014535024888                    1     3.64886935980372                    5 1.24882111455523e-15                   20                    0                    0                    0 
234     2.55076870538276     6.90846680043771    0.996127325617097     0.92366677176975      2.8051181818641                    5 4.22497750881386e-15                   15                    0                    0                    0 
77     4.49492855997598     6.61058723886847    0.922261611969592     0.92366677176975     3.11699093752814                    4 1.89169058243626e-15                   11                    0                    0                    0 
77     4.42968439217475     6.56501932528325     1.19880780239898     0.98284524179719     1.38446028851359                    4 2.06556311506547e-15                   10                    0                    0                    0 
59     8.59591317354365     6.70184551143161     1.19026764418164                    1     3.74701368187129                    4 2.15548818228241e-15                   14                    0                    0                    0 
59     9.28580422307291      6.7012624875957     1.00419620140385     0.95572419725813     3.26282471573101                    3 1.57037075813918e-15                   14                    0                    0                    0 
59     9.00547704739124     6.94914082954371     1.00031049753616    0.991259378759715     1.03001626097097                    0 1.87330957554312e-15                    9                    0                    0                    0 
59     8.80238863765819     7.28388201996904    0.980532833499503     0.98284524179719     1.39395752208703                    3 1.93329106841417e-15                    8                    0                    0                    0 
115    0.174135650401152     8.42676682425334    0.998415231647251                    1     3.82976624283731                    2 1.83551753090072e-15                   14                    0                    0                    0 
115     1.03300646871038     8.67891829404535    0.922398758535772     0.92366677176975     2.74969142932449                    5 8.28571699147741e-16                   13                    0                    0                    0 
115    0.755704606664693     8.72175394457223    0.986272195658122     0.98284524179719     1.40659939196829                    3 1.28023409396654e-15                   10                    0                    0                    0 
270     3.35220193761256     8.65671368957376    0.998974190571523                    1     3.92832240116454                    4 7.84956515326015e-15                   18                    0                    0                    0 
270     4.03332281787183     8.44534962013359    0.954565198368002     0.95572419725813     2.91373964289249                    7 3.39070036671681e-15                   13                    0                    0                    0 
96      5.9365893340684     7.78592647541621    0.922087309893969     0.92366677176975     2.53885318744072                    5 2.20148547794017e-15                   12                    0                    0                    0 
96     6.21195953160154     7.84133660243726     0.98463332299024     0.98284524179719     1.36029197743382                    2 2.66834605755938e-15                    8                    0                    0                    0 
96     6.80562343028739     7.57160829255041    0.998673252144457                    1     3.61342581799733                    6 2.98761823841284e-15                   17                    0                    0                    0 
96     6.54099678761768     7.99118522532374     1.13618396503432    0.991259378759715     1.07641343301752                    3 2.69221044496452e-15                    8                    0                    0                    0 
59     8.72742218437152     7.56122289731461    0.964007088308078     0.92366677176975     2.55071263755481                    6  1.6539585663454e-15                   12                    0                    0                    0 
115    0.404656387271017      8.8840971772865     1.05028426626574    0.991259378759715     1.08776033548258                    1 1.97229131204034e-15                   11                    0                    0                    0 
115    0.129006796296347     9.13364608537506     1.09253047314118     0.95572419725813     2.96574061721799                    6 2.60736947875047e-15                   12                    0                    0                    0 
270     3.85438356884603     8.76926233523729     1.01027331879819    0.991259378759715    0.961804704599159                    3  3.0138538440428e-15                    9                    0                    0                    0 
270     3.77547754106185     9.14184719003761     1.10323614731335     0.98284524179719     1.49435422914121                    3 4.51979903466399e-15                   13                    0                    0                    0 
270     3.79418868728885     9.41347928887417     1.19638617420187     0.92366677176975      2.4333602833712                    7 6.38798325381433e-15                   14                    0                    0                    0 
348     5.60478751837923     9.64691102797785    0.922663345620897     0.92366677176975      2.4708433375433                    9 1.22754127127913e-15                   16                    0                    0                    0 
348     5.71514169655461     9.89503831435608     1.01787803319602     0.98284524179719     1.50408790346342                    2 1.23776008675598e-15                    9                    0                    0                    0 
249     8.57686767090641      9.4013504295897      0.9750190998255     0.92366677176975     2.73777766099557                    5 1.57046927692231e-15                   15                    0                    0                    0 
249     8.41373986972203     9.63730454990571    0.997953903167436     0.98284524179719     1.49727446653533                    0 2.02347399359791e-15                   11                    0                    0                    0 
249      7.7946252173299     9.84244876261268     0.99840616572124                    1     3.73082915402245                    4 2.59401868056946e-15                   16                    0                    0                    0 
142     4.19593208603072    0.475505592203378     1.60243196260694     0.95572419725813     2.84732106385733                    7 2.01724939983268e-15                   19                    0                    0                    0 
208     7.15387325446321    0.796446863844814      1.5429583122585                    1     3.62319351110393                    6 7.47619467007866e-16                   21                    0                    0                    0 
213     2.32846595974669     2.50063278667335     2.19900121577416     0.92366677176975     2.44736886328776                   11 5.10275966416328e-16                   18                    0                    0                    0 
213     3.22217196038231     1.99711606597479     2.22542220442393     0.95572419725813     2.74107929480833                    8 1.18730119142935e-15                   16                    0                    0                    0 
213     2.94450802880318     2.24174196949226     2.28112682680799    0.991259378759715     1.10095726987184                    1 1.10201192042698e-15                   13                    0                    0                    0 
213     2.59773281238449     2.42392460276678     2.26550120232571     0.98284524179719     1.44591242698165                    2 8.12773318501434e-16                   14                    0                    0                    0 
118    0.674003437484902     3.66928761507237     1.76931130441767     0.92366677176975     2.37851415326657                    4 1.52394239155451e-15                   14                    0                    0                    0 
118    0.843730567679195     3.65830740674316     1.53718382237076     0.98284524179719     1.45293343156296                    2 1.76085998031942e-15                   12                    0                    0                    0 
213     3.16277489519607       2.656946642858      2.4931313383929                    1     3.45982098457917                    5 1.51386244322452e-15                   16                    0                    0                    0 
242     7.34450853813549     3.02532486026166     1.31718800812039    0.991259378759715    0.960233998792589                    2 9.37065298254766e-16                   12                    0                    0                    0 
242     7.28125771341556      2.7879112161054     1.59945772181322     0.95572419725813       2.856868008722                    7 9.89963648176744e-16                   19                    0                    0                    0 
44     5.03367030422315     4.54268311179925      2.4740556787331                    1     3.52746376371946                    6 6.32455679333091e-15                   17                    0                    0                    0 
132     1.86330134693215     5.08567597200374     2.53024321973338     0.95572419725813     2.87554662902598                    8 4.78018941873165e-15                   21                    0                    0                    0 
77     4.18028317689733     6.16332477240823     1.79053123672431     0.95572419725813     2.68907909602927                    8 4.56354371165955e-15                   18                    0                    0                    0 
159     6.20482160378356     5.69588736625597     1.33755862036733                    1     3.41271708054246                    7  2.9074482462025e-15                   20                    0                    0                    0 
203     7.67543974743512     5.10386335412367     2.61122898914121     0.95572419725813     2.60705102802907                   11 1.77876298673685e-15                   19                    0                    0                    0 
337    0.264305245870502     7.18294162089595     2.55920643224021                    1     3.31666727015826                    7 2.34924545644768e-15                   22                    0                    0                    0 
77        4.31550835307     6.40322967715635     1.53715032793715    0.991259378759715    0.997967387011531                    1 2.60918130764482e-15                    8                    0                    0                    0 
77     4.56900953087159     6.76271496518535     1.80452410981202                    1     3.45187873726375                    5  4.7783050112299e-15                   20                    0                    0                    0 
170      1.8641060983329     8.30657221827747     2.56497342974146     0.95572419725813     2.86360704792054                    6 2.89198221810506e-15                   17                    0                    0                    0 
39     5.03115911993334     8.68794152483598     2.60548937769841     0.98284524179719     1.33778672407831                    3 3.32589519342118e-15                   15                    0                    0                    0 
39     5.25269094939679     8.61697054332279     2.43608512763946     0.92366677176975     2.07885629467782                   10 2.16038861982423e-15                   18                    0                    0                    0 
96     6.78051018256902     8.20503208489089      1.3283946588593     0.95572419725813     3.00359311951496                    5 2.32630739089454e-15                   18                    0                    0                    0 
272    0.589444472395488    0.243209230345186     2.64857752350136     0.92366677176975     2.33045007624419                    7  2.0084324974493e-15                   17                    0                    0                    0 
272     0.78107845049224    0.455024389568366     2.68353161310573     0.98284524179719     1.35664148173033                    2 2.34546545068514e-15                   15                    0                    0                    0 
272    0.950945960450705    0.804643216008839     2.73451619887881    0.991259378759715    0.940604263739804                    2 2.65325342886735e-15                   14                    0                    0                    0 
272     1.00579181715697     1.17293184415161     2.77189954955444     0.95572419725813      2.8269405906174                    8 2.90055761294303e-15                   23                    0                    0                    0 
272     1.38268111064008    0.580026441664488      2.9022461110971                    1     3.42699091058088                   11 1.73956334538683e-15                   24                    0                    0                    0 
339     3.46787702198431    0.961683396309513     3.90219524172126    0.991259378759715     1.05430256318968                    2 2.45373156532273e-15                   14                    0                    0                    0 
339     3.77726572883258    0.914488291081887     3.69702861031059     0.95572419725813     2.57718288264674                   10 1.03408766249376e-15                   18                    0                    0                    0 
202     5.49099881089142     1.14599494014682     2.83524428093226     0.95572419725813     2.92820425013526                    6 2.74993027969891e-15                   16                    0                    0                    0 
237     7.18199817734624    0.478916056740193      3.5519595213545                    1     3.55241996688299                    4 9.46849651375766e-16                   16                    0                    0                    0 
202     5.01514154093478     2.05362986840795     2.78331868178214     0.92366677176975      2.3280844103022                    8 1.42844852923675e-15                   18                    0                    0                    0 
202     5.41241523133239     1.51175688338126     2.82602916133568    0.991259378759715    0.954640005665012                    2 2.60872196327051e-15                   12                    0                    0                    0 
202     5.85875760729798     1.74951955375471     2.72996327419801                    1     3.55704925318797                    3 2.89962233147393e-15                   20                    0                    0                    0 
202      5.2195132818462     1.85258125177395     2.80827217620585     0.98284524179719     1.35789107039967                    4 2.06768642160874e-15                   15                    0                    0                    0 
80     8.42530534808142     1.72462203216336     2.70036432663127     0.95572419725813     2.93450395794517                    5 2.81044847374816e-16                   15                    0                    0                    0 
80     8.76587769765118     1.82840378344691     2.81561153628956    0.991259378759715     1.01028253471901                    2 2.45998041682694e-16                   11                    0                    0                    0 
80     8.77764170027315     2.34155723374084     2.77667051200159                    1     3.60114631054178                    5  3.0817836317408e-16                   23                    0                    0                    0 
80     9.12266747140021     1.82600429640362     2.97804005145151     0.98284524179719     1.43575293960241                    2 1.92759070823501e-16                   14                    0                    0                    0 
80     9.36029595614658      1.7515631385384     3.12226989881637     0.92366677176975      2.2074124694923                    8 1.46302883637731e-16                   17                    0                    0                    0 
359     0.91466590404676      2.9256763796411     3.44207306436392     0.92366677176975     2.39027402919452                    7 1.38066003288875e-15                   14                    0                    0                    0 
359     1.14100146372951     2.95908403711782     3.61662155179728     0.98284524179719     1.28436101557965                    5 2.49329256920975e-15                   11                    0                    0                    0 
359     1.44805204128967     2.89483260098916     3.85173730734575    0.991259378759715    0.953848972849867                    3   3.960151442352e-15                   11                    0                    0                    0 
359     1.62032965170113     3.37327730160747     3.77178512109006                    1      3.3881610534782                    8 4.60852898000846e-15                   21                    0                    0                    0 
307      7.1958279588659      2.5584472841129      3.8484533330547     0.92366677176975      2.3285208411353                    8 1.17203133193204e-15                   16                    0                    0                    0 
307     7.09329819055607     2.81821136987493     3.91788890015888     0.98284524179719     1.43198165242245                    1  2.7321219561919e-15                   12                    0                    0                    0 
333    0.198877894813145     4.61898877159264     3.27789269643895     0.92366677176975     2.31249780154846                    7 4.27546525185131e-16                   15                    0                    0                    0 
333    0.231319756054248     4.76563954298714     3.52335574560937     0.98284524179719      1.3648009304906                    4 6.67727198194186e-16                   13                    0                    0                    0 