ITEM: TIMESTEP
0
ITEM: NUMBER OF ATOMS
0
ITEM: BOX BOUNDS pp pp fm
0.0000000000000000e+00 2.0000000000000000e+01
0.0000000000000000e+00 2.0000000000000000e+01
0.0000000000000000e+00 1.1000000000000000e+02
ITEM: ATOMS mol x y z radius c_voro[1] c_coordination c_kinetic c_voro[2] c_order[1] c_order[2] c_order[3] 
ITEM: TIMESTEP
10000000
ITEM: NUMBER OF ATOMS
4500
ITEM: BOX BOUNDS pp pp fm
0.0000000000000000e+00 2.0000000000000000e+01
0.0000000000000000e+00 2.0000000000000000e+01
0.0000000000000000e+00 1.1000000000000000e+02
ITEM: ATOMS mol x y z radius c_voro[1] c_coordination c_kinetic c_voro[2] c_order[1] c_order[2] c_order[3] 
65     2.22116672323044    0.526880305746653    0.978324749512402     0.96532406315995     3.30355703465032                    4 3.81970448965112e-15                   14                    0                    0                    0 
65     2.21389274495705    0.942193404328456     0.99439406888621     0.99829374256475    0.959871669348104                    2 1.21156681005646e-15                   11                    0                    0                    0 
65     2.67456385979048     1.03061158262529    0.998393543671238                    1     3.46237117529603                    5   1.177186072767e-15                   15                    0                    0                    0 
70     4.63575398920831     1.15154740650645    0.994075282413813     0.96532406315995     3.12370663185007                    4 1.30113098213553e-15                   13                    0                    0                    0 
70     5.03837066880854     1.04820292211008    0.998054036881068     0.99829374256475    0.958097976284124                    0 1.33630367587349e-15                    9                    0                    0                    0 
70     5.54056062283786     0.60109341420301    0.990703727044818       0.928253029752     2.42259053142509                    7 1.33512454970453e-15                   14                    0                    0                    0 
70     5.36604755735014    0.833583723436432    0.990986209347726     0.99153252289505     1.60891042442321                    2 1.41268012179162e-15                   12                    0                    0                    0 
72       7.394172887875     1.13093980115665    0.997993689097618                    1     3.47400748160958                    5  5.3427138452299e-15                   16                    0                    0                    0 
177     9.43761038280421    0.223889596332313    0.989375032558283     0.99153252289505     1.61516576058003                    3 6.33963301365102e-15                   15                    0                    0                    0 
177      9.5625315237235    0.481758740007423     0.94033579312645       0.928253029752     2.89836698367696                    7  5.0540302988001e-15                   14                    0                    0                    0 
65     1.89527180010103     1.53324407484659     1.03038694920184       0.928253029752     2.63944923902197                    5 1.17539180867108e-15                   10                    0                    0                    0 
65     2.08101507658006     1.30990052384445     1.01926367719137     0.99153252289505      1.6434148379166                    2 5.15812464060377e-16                   12                    0                    0                    0 
70     5.23118021207009     1.47584308672095    0.998179445844764                    1     3.86278775078293                    3 8.97311849863852e-16                   15                    0                    0                    0 
72      7.2453649784143     1.72149715483121     1.24260818439554     0.99153252289505     1.82952049198833                    2 4.32274960530289e-15                   15                    0                    0                    0 
72     7.56899541625451     1.55457746279616      1.0980929463542     0.99829374256475     1.07483686081371                    0 4.73140229080769e-15                    9                    0                    0                    0 
72     7.95913681460189     1.50424779043083     0.96373254663681     0.96532406315995     3.15010268588532                    6 4.96669780052742e-15                   14                    0                    0                    0 
14    0.994282650238602      3.1958610476541    0.963301742203299     0.96532406315995     3.24223101793739                    6 8.72148837893536e-16                   12                    0                    0                    0 
14     0.31993888225582     3.25704719152471    0.998425204694305                    1     3.50066714391386                    3 1.00331509862419e-15                   13                    0                    0                    0 
14    0.718226901045854      3.5048671528757    0.996536571954642     0.99829374256475    0.932022533429452                    2 9.52849400358827e-16                   11                    0                    0                    0 
221     3.37953072471511     2.82174804724414    0.926934681532183       0.928253029752     2.72594260278994                    6 2.33605380767093e-15                   12                    0                    0                    0 
221      3.6154148492688     2.95950501247705     1.02637477417297     0.99153252289505       1.632870266403                    3 2.84743011539462e-15                   11                    0                    0                    0 
221     3.90329765521723     3.22375722609668     1.05426304318773     0.99829374256475     1.02856329025121                    1 2.83376932970696e-15                    8                    0                    0                    0 
221     4.15510192229547     3.54201415405272    0.964245030953191     0.96532406315995     3.57680105382273                    3 2.44185081638521e-15                   13                    0                    0                    0 
35     6.48751263338427     3.64543257105669    0.964495302171732       0.928253029752     3.14079864970887                    4 1.77584709985831e-14                   14                    0                    0                    0 
196     9.18996046000892     2.97881515806203    0.927561949889571       0.928253029752     2.89758346092828                    4 7.88434272116408e-15                   10                    0                    0                    0 
196     9.29416861136825     3.22425820662379     1.04334193441395     0.99153252289505     1.55570899483164                    2 6.19919766906184e-15                   10                    0                    0                    0 
196     9.42042480557512     3.59413099382715     1.07048954254977     0.99829374256475    0.979551636703917                    1 2.79034940678422e-15                    8                    0                    0                    0 
14     0.56589913499002     3.86524880833989     1.01665651240016     0.99153252289505     1.72163312868919                    1 1.01577210617014e-15                   13                    0                    0                    0 
14    0.550808317660736     4.15504574271344     1.03387968777367       0.928253029752     2.76235056641048                    7 9.49313254690287e-16                   13                    0                    0                    0 
116     2.41482617979355     4.50094079381585    0.964048437839893     0.96532406315995     3.09372393373956                    8 6.24828046439166e-16                   18                    0                    0                    0 
116     2.52432611503244     4.89236148142913     1.05120182637558     0.99829374256475      1.0429606194372                    1 2.03965991126482e-15                    7                    0                    0                    0 
35     6.74577614308098     3.77666381401487    0.988681127520386     0.99153252289505     1.65835491691843                    1 1.46296482207957e-14                   13                    0                    0                    0 
35     7.01511111651666     4.06104203610629    0.997118947594121     0.99829374256475    0.974405609322848                    0 7.63000368508346e-15                   10                    0                    0                    0 
35     7.39128049754699     3.80216104387546     1.10449154533029                    1     3.70395021128637                    4 6.67989336950371e-15                   20                    0                    0                    0 
35     7.19320235053737      4.4351715264545    0.963851238529024     0.96532406315995     2.97486529875124                    9 3.08875644075539e-15                   14                    0                    0                    0 
196     9.54162439296457     3.97716764019863    0.963767046347765     0.96532406315995     3.41404215015885                    2 7.76007239564452e-16                   10                    0                    0                    0 
122    0.725591594958366     6.05134722396169    0.925557303751871       0.928253029752     2.61913950783876                    7 1.28996726723209e-15                   14                    0                    0                    0 
116     2.69292117120869     5.24493673618772     1.02381762141537     0.99153252289505     1.70572572988826                    1 3.82691514300003e-15                   12                    0                    0                    0 
116     2.86415301838367      5.4593110024062    0.927744929094928       0.928253029752      2.8795241864087                    5 4.36002089850104e-15                   15                    0                    0                    0 
246     5.12648101972694     5.20892299601606    0.964023071526913     0.96532406315995     3.42963232206931                    3 5.53527691234673e-15                   10                    0                    0                    0 
246     5.44841862008941      5.4503048535496     1.06836426174598     0.99829374256475    0.989788020200291                    1 6.05522772058518e-15                   10                    0                    0                    0 
246     5.72639654318391     5.72576641084018     1.05012412330583     0.99153252289505     1.59454682670055                    2 9.32639151373844e-15                   10                    0                    0                    0 
246     5.89709497095482     5.93513710497276    0.942734212643519       0.928253029752     2.69043546452747                    4 1.13834115207975e-14                   11                    0                    0                    0 
145     8.65754576193295     5.69169997024754    0.999211664753778     0.96532406315995     3.36034125565235                    3 1.31788016188976e-15                   14                    0                    0                    0 
145     8.38165360324865     6.00262653323008    0.997139745564535     0.99829374256475    0.947447865530555                    1 1.42846668093043e-15                   12                    0                    0                    0 
145     8.04104283117802     6.19600242036165     1.00571681619933     0.99153252289505     1.63210221670496                    2 2.31875626307366e-15                   13                    0                    0                    0 
145     7.75450411842077     6.24500346080336     1.00676459465234       0.928253029752     2.56386530538624                    4 2.84562906073169e-15                   12                    0                    0                    0 
122    0.831476926290955     6.29897191024607     1.03499653375158     0.99153252289505     1.58932462102014                    5 1.99041728015211e-15                   11                    0                    0                    0 
122     1.02981801306933     6.63596656917761     1.05905710441758     0.99829374256475     1.08259220971474                    0 2.55040035126024e-15                   11                    0                    0                    0 
122     1.28659646266759     6.94882151670512    0.964279927478931     0.96532406315995     3.21908560881557                    2   2.663127374705e-15                   12                    0                    0                    0 
163     3.58825481176702     7.25132569118181     0.99560247389207     0.99829374256475    0.993433842461787                    1 3.85868904559677e-15                   10                    0                    0                    0 
163     3.17901121952752     7.32380674796959    0.987710563175253     0.96532406315995     2.96520310085568                    6 3.68087476614949e-15                   13                    0                    0                    0 
163     3.93134323055822     7.06223141442431    0.991456475742851     0.99153252289505     1.60616811849666                    3 3.86802515096128e-15                   10                    0                    0                    0 
163     4.12300756743763      6.8436671334699    0.992491256023828       0.928253029752     2.62103342528665                    7 3.36182757613776e-15                   15                    0                    0                    0 
145     8.67394860517008     6.36952486812615    0.998083036956334                    1     3.86135371016422                    3 1.12896891834376e-15                   16                    0                    0                    0 
168    0.114880393788848      8.4343737912944    0.926717114955867       0.928253029752     2.48383694215059                    5 1.92962305096747e-15                    9                    0                    0                    0 
163     3.74800967808154     7.69237132375756    0.998565372170527                    1     3.68160360142823                    3 3.68505635652186e-15                   18                    0                    0                    0 
191     5.70116446811384     7.89555463008803    0.970617952535326     0.96532406315995     3.06084585514614                    6 3.87067052562393e-15                   13                    0                    0                    0 
191     6.10689638004247     7.98276877252612    0.994522191583172     0.99829374256475    0.944928341164888                    1 3.67103468701507e-15                    8                    0                    0                    0 
191     6.08727475850959     8.45084108587433     1.01850025540097                    1     3.63991383178309                    5 2.83157906708652e-15                   17                    0                    0                    0 
191      6.4960304435999     7.93770723723222    0.999779237647482     0.99153252289505     1.65991967269642                    1  3.5032270731124e-15                   11                    0                    0                    0 
191     6.75614991846262     7.80794962440615     1.00250951685107       0.928253029752     2.84885692526172                    5 3.12446667019058e-15                   13                    0                    0                    0 
219     1.99456674447263     8.84666810173645    0.964301573167804     0.96532406315995       3.169508316093                    3 3.04071050711612e-15                   11                    0                    0                    0 
219      2.2763997936611     9.13498263086791     1.06549924268527     0.99829374256475    0.978842708692335                    1 3.47287161684205e-15                    8                    0                    0                    0 
219      2.5151531989246     9.44462471276126     1.04096171001877     0.99153252289505     1.70687347947337                    2 3.57697530909134e-15                   15                    0                    0                    0 
219     2.66029080923276     9.66956068844693    0.927623655385187       0.928253029752     2.69614278890159                    4 3.07851560684052e-15                   13                    0                    0                    0 
187     4.69986755534184     9.83938620362889    0.963654088316163     0.96532406315995     3.54306979369441                    2 8.29931895534199e-15                   13                    0                    0                    0 
244     7.78958330208472     9.35515459488608     1.03453711533111       0.928253029752     2.89370210476016                    8   2.464653950559e-15                   12                    0                    0                    0 
244     8.06400048621644     9.44955889124636     1.01751737406571     0.99153252289505     1.82707876090465                    1 3.24046903755017e-15                   14                    0                    0                    0 
244     8.71645394469688     9.38081232569335    0.999728966368985                    1     3.93898096430333                    2 3.74458884772764e-15                   15                    0                    0                    0 
244     8.36843313997915     9.69534183661915     0.99764274202713     0.99829374256475     1.06488605334613                    0 4.00670799381107e-15                   10                    0                    0                    0 
137    0.883982551616521   0.0578007729000762     2.39483625930147       0.928253029752     2.32187589072047                    8   2.707981059355e-15                   15                    0                    0                    0 
137     1.09041148013468    0.200089816000327     2.54196735526289     0.99153252289505      1.6054808002651                    2 2.40628989156543e-15                   19                    0                    0                    0 
19     3.52386188528051    0.176979132279895     2.55761466083388       0.928253029752     2.13156494748787                    7 1.96050860754759e-15                   12                    0                    0                    0 
160     8.90932364759964     1.18243336430443     2.56772778694993       0.928253029752     2.33916796230947                   11 4.44053611770494e-15                   18                    0                    0                    0 
72     7.07082607382816     1.92032109301415     1.36307330840302       0.928253029752      2.2922278141679                    8 3.58276801594565e-15                   14                    0                    0                    0 
160     9.47592415045121       1.544535349421     2.56903607617247     0.99829374256475    0.967961324791894                    3 8.09749285392397e-15                   13                    0                    0                    0 
160     9.75349731866482      1.7967530783882     2.38977242360977     0.96532406315995     2.97656515279602                    5 8.43687776157651e-15                   18                    0                    0                    0 
195     2.21186626816805     2.76654700229232     2.42910105950825     0.96532406315995     2.97981751147429                    6 1.16222024965124e-14                   16                    0                    0                    0 
195      2.1183960995819      3.1468789097201     2.56841032489035     0.99829374256475    0.915833455573164                    3  6.2942406431165e-15                   11                    0                    0                    0 
221     4.10888981901524     3.06671817224437     1.44557141754519                    1     3.47312725932621                    6 3.08348902516659e-15                   16                    0                    0                    0 
119     5.72931358043819     2.64625793247123     2.53864923704943                    1     3.30465593901193                    5 5.91719137739386e-15                   11                    0                    0                    0 
196     9.50016441696572      3.6103312064595     1.53247524967127                    1     3.32233747939844                    4 2.09038746676738e-15                   20                    0                    0                    0 
116     2.25705253520427     4.96839916310396     1.42913667603838                    1     3.10599188603314                    8 2.39613129463223e-15                   19                    0                    0                    0 
125     3.90506976594049     4.72987258491892     2.46987260872429     0.96532406315995     2.91355828510638                    9 1.81622893949142e-15                   20                    0                    0                    0 
246     5.51899060291836     5.30440643541781      1.5085743172129                    1      3.2233911506603                    6  3.6110313210981e-15                   20                    0                    0                    0 
12     9.78919249936299     5.90828532931901     2.54714857580279     0.96532406315995     2.90693773109665                    6 3.38067938013112e-15                   17                    0                    0                    0 
122    0.898397156666473     6.76743720663093     1.48974919406414                    1     3.33366131714624                    7 3.34172899045065e-15                   20                    0                    0                    0 
25     4.83908263965192     8.65843873469751     2.47270119054563       0.928253029752     2.22412316206137                    9 1.12582265762231e-15                   20                    0                    0                    0 
25     4.59134207999419     8.71159823762338     2.61519791354172     0.99153252289505     1.52501910619091                    3 1.23770211128644e-15                   13                    0                    0                    0 
62      8.2386358101386     7.89930387545278     2.25468524221341                    1     3.51246842555795                    5  1.4473170214136e-14                   19                    0                    0                    0 
62     8.14297142840781     7.58225353714221     2.58691867695939     0.99829374256475    0.917031520046403                    3 1.56766082650133e-15                   13                    0                    0                    0 
219     2.34785988300489     9.02316818179608     1.51543549450749                    1     3.22900428785931                    6 3.23163673997839e-15                   16                    0                    0                    0 
183     6.42847820730018     9.90975473619029     2.32795558161942     0.99153252289505     1.52927837429716                    4 1.21998705474333e-15                   11                    0                    0                    0 
183     6.59305217663273     9.68372894820648     2.60238453363738     0.99829374256475    0.932152184470857                    2 1.15232002630535e-15                    9                    0                    0                    0 
137     1.28978859491324    0.495846307664102     2.70401784634374     0.99829374256475    0.919638815646475                    2 2.78321098646002e-15                   13                    0                    0                    0 
137     1.40830790684764    0.880976695145381     2.80611515767635     0.96532406315995     2.86786293017972                    7 2.96908020199703e-15                   19                    0                    0                    0 
137     1.63097502027335    0.249189995799875     2.91090944372838                    1     3.37567175439167                    4 7.09574718745168e-15                   25                    0                    0                    0 
19     3.62072038751597    0.437182185335395     2.64375080561157     0.99153252289505     1.54987824767893                    3 2.95502745899223e-15                   13                    0                    0                    0 
19      3.5636746939322     1.07470087805845     2.78884986999335                    1     3.58895995884073                    2 4.70710176215966e-15                   18                    0                    0                    0 
19     3.86775184019011     0.71880412705483     2.75841571413031     0.99829374256475    0.960992838781468                    1 3.88160676675625e-15                   13                    0                    0                    0 
19     4.21504786739621      0.9110353931121     2.88182038776965     0.96532406315995     3.17642279660691                    4 4.36628614769781e-15                   19                    0                    0                    0 
164     6.16810224530037    0.715310282657627     2.81575462336843                    1     3.13778499977641                    7 4.38741526696802e-15                   19                    0                    0                    0 
164     6.26810011143961   0.0644785933283381     2.65408997607185     0.96532406315995     2.75639906472558                    9 3.09705100188362e-15                   20                    0                    0                    0 
164     6.50260866547245    0.391491367720354     2.75832282651439     0.99829374256475    0.975883567053894                    0  3.7362158093196e-15                   11                    0                    0                    0 
164     6.81645495121739    0.614540516805248     2.83066288410647     0.99153252289505     1.55360200301172                    5 4.06724434313058e-15                   14                    0                    0                    0 
164     7.09406361837324     0.69116618594708     2.87026804111331       0.928253029752     2.44756160690029                   10 3.53912423940898e-15                   19                    0                    0                    0 
108    0.187822247434995     2.42018059896776     2.80938896257384                    1     3.27875911617049                    3 2.10736298216988e-15                   18                    0                    0                    0 
160      9.1622130420107     1.31563559854141     2.62074431932134     0.99153252289505     1.51733395595444                    6 6.48991040380417e-15                   13                    0                    0                    0 
160     9.68339435278822     1.47902743614328     2.98462779233799                    1     3.28212229203343                    6 9.76746383746549e-15                   18                    0                    0                    0 
108   0.0152393724844294      2.9071386640754     3.24848338676258     0.96532406315995     2.80535820650599                    8 2.11855193623483e-15                   16                    0                    0                    0 
195     1.91144665877529     3.45963974417592      2.6817067824642     0.99153252289505     1.51663247529666                    3 3.76119981930373e-15                   14                    0                    0                    0 
195     1.68384261686283     3.63387759322584     2.73012378131823       0.928253029752     2.18403433215195                   11 3.28860132393987e-15                   21                    0                    0                    0 
195     2.54861505116567     3.30260980485328     2.67190519481312                    1     3.20712697940723                    8 3.24865037470443e-15                   20                    0                    0                    0 
162     4.24929433593486     2.60244235583647     3.87881496954928                    1     3.42693994483716                    5 9.08635314678017e-15                   18                    0                    0                    0 
119     5.54442728926875     3.54999416438169     2.63883405135866       0.928253029752     2.50383576511772                    5  2.4623216013105e-15                   18                    0                    0                    0 
119     5.66923167021007     3.28834506616607     2.66051929090819     0.99153252289505     1.54895924049874                    4 3.28212821589276e-15                   13                    0                    0                    0 
119     5.91525334787761     3.00596244585379     2.77548401497586     0.99829374256475    0.994697629660816                    0  3.2855276692443e-15                   12                    0                    0                    0 
119      6.2361257148266     2.81368289276061     2.95677273837963     0.96532406315995     3.08480486272645                    5 2.52389386697755e-15                   20                    0                    0                    0 
60      8.1012520789529     2.91740972592727     2.66103045742852       0.928253029752     2.34167370090422                    7   8.159950768421e-15                   16                    0                    0                    0 
60     8.18159081103468     3.01013661655832     2.92457181204876     0.99153252289505     1.60162308641285                    4 5.79298282457632e-15                   13                    0                    0                    0 
60     8.36403086113117     3.21775774136366     3.20222734426878     0.99829374256475    0.957101579555195                    0  2.3055131999472e-15                    8                    0                    0                    0 
60      8.1630872873386     3.02632742863345     3.58041745733176                    1      3.7932678157177                    3 1.39675454234771e-15                   21                    0                    0                    0 
60     8.62346255676309     3.48493866566141     3.38690450213034     0.96532406315995     3.11523814762957                    4  1.0926538605115e-15                   18                    0                    0                    0 