ITEM: TIMESTEP
0
ITEM: NUMBER OF ATOMS
0
ITEM: BOX BOUNDS pp pp fm
0.0000000000000000e+00 2.0000000000000000e+01
0.0000000000000000e+00 2.0000000000000000e+01
0.0000000000000000e+00 1.1000000000000000e+02
ITEM: ATOMS mol x y z radius c_voro[1] c_coordination c_kinetic c_voro[2] c_order[1] c_order[2] c_order[3] 
ITEM: TIMESTEP
10000000
ITEM: NUMBER OF ATOMS
4500
ITEM: BOX BOUNDS pp pp fm
0.0000000000000000e+00 2.0000000000000000e+01
0.0000000000000000e+00 2.0000000000000000e+01
0.0000000000000000e+00 1.1000000000000000e+02
ITEM: ATOMS mol x y z radius c_voro[1] c_coordination c_kinetic c_voro[2] c_order[1] c_order[2] c_order[3] 
136    0.781452823587912    0.521750415379609     0.99465898863028     0.96532406315995     3.25359984303145                    5 6.14191810638361e-16                   15                    0                    0                    0 
136     0.92116421821565    0.913240182032523    0.998207573258917     0.99829374256475    0.945636942643129                    1 7.09245735478487e-16                   10                    0                    0                    0 
136    0.512935578026426     1.14432669396218    0.998425342291566                    1     3.75826546226843                    4 7.61574186270228e-16                   17                    0                    0                    0 
136     1.16482777338857     1.21992459110963    0.990708038597841     0.99153252289505     1.60102154799121                    4 7.12746103363002e-16                   11                    0                    0                    0 
47     5.21103223649667     0.25054657481748    0.963104002498828     0.96532406315995     3.43377202159594                    4 1.02645156859624e-15                   14                    0                    0                    0 
47     5.51161576886588    0.531727363404442     1.02126763235154     0.99829374256475    0.970571334228006                    0 1.29394133164511e-15                   11                    0                    0                    0 
47      5.8882231725399    0.253140767543597    0.996609607298778                    1     3.87824505260475                    5 1.21651523862565e-15                   18                    0                    0                    0 
47      5.6920259662329    0.871878427016214     1.09360650519237     0.99153252289505      1.7470525714004                    2 1.54111961485385e-15                   13                    0                    0                    0 
47     5.73064118513169     1.15588493010274     1.14214313863591       0.928253029752     2.49121456959219                   12 1.50312091940583e-15                   15    0.429591598554386    0.452655310801529    0.180809157171757 
200     8.72935647374727    0.210695942802035    0.992535683390703     0.96532406315995     3.34853814646606                    3 1.98741577071898e-15                   13                    0                    0                    0 
200     9.73479837740353    0.543517817376379    0.991056664431324       0.928253029752       2.883536142631                    5 1.69409444008995e-15                   16                    0                    0                    0 
200     9.06886687717539    0.450500620052235    0.997279771550742     0.99829374256475    0.959339659831243                    1 2.12461044119819e-15                    9                    0                    0                    0 
200     9.44463319170238    0.561146654682521    0.990905620516376     0.99153252289505     1.66191965640264                    3  2.0536091625021e-15                   11                    0                    0                    0 
200      8.8679404789603    0.874387602900916     0.99751293785699                    1     3.90577997545885                    3 2.03506285781638e-15                   16                    0                    0                    0 
136     1.41229421562432      1.3724586853954    0.990121730020132       0.928253029752     2.55996366689186                    6 5.87286096215692e-16                   10                    0                    0                    0 
150     3.29392266744023     1.70068497114522    0.964277392162344     0.96532406315995     3.20987100270735                    3 1.23047762262023e-15                   14                    0                    0                    0 
150     3.68466044223561     1.82149795872016      1.0386031415664     0.99829374256475     1.05522829176809                    1 1.48156087555816e-15                    9                    0                    0                    0 
150     4.02116205475728     2.02108219825226     1.01819985707304     0.99153252289505     1.60705504857299                    3 1.69955809273458e-15                   13                    0                    0                    0 
150     4.22152665992769      2.2103472508724    0.925790990802055       0.928253029752     2.79859995455005                    5 1.58738885776071e-15                   14                    0                    0                    0 
254     7.39378391742623     2.17098754475262    0.963483476338653     0.96532406315995     3.69043265615066                    3 1.66152961643381e-15                   13                    0                    0                    0 
254     7.13029827520899     2.47399131957011     1.07100153265376     0.99829374256475    0.993283136594553                    1 1.33469510986914e-15                    6                    0                    0                    0 
95     2.03854613019888      3.2092249768449    0.998392734893602                    1     3.64878902768358                    5 1.09785536253779e-15                   16                    0                    0                    0 
95      2.1610174592504     3.66204841166862    0.996560652593304     0.99829374256475    0.929211871991882                    0 8.83805664665374e-16                   11                    0                    0                    0 
95     2.57492926830032     3.62391922400139    0.992169409812171     0.96532406315995     3.04065370106656                    3 8.35299917316568e-16                   14                    0                    0                    0 
254     6.69007568333356     2.96168722074904    0.927779793246274       0.928253029752     2.97087407911646                    3 1.15375802812861e-15                   13                    0                    0                    0 
254     6.86615815308876     2.76212930603937     1.04473378520432     0.99153252289505     1.72911785699955                    2 1.09930450819519e-15                   12                    0                    0                    0 
41     9.48134720231699     3.29274517421085     0.96451515109072     0.96532406315995     3.59218331874599                    3 5.44338653905921e-15                   14                    0                    0                    0 
41     8.89229829676774     3.39950315680985     1.28285622492016                    1     3.46078403416953                    4 4.92579666634039e-15                   17                    0                    0                    0 
41     9.21993395787356     3.61079858219272     1.02197164721055     0.99829374256475    0.961822260118913                    1 5.86660929493039e-15                    7                    0                    0                    0 
95     1.59420408103527     4.02373444053006    0.988718468529499       0.928253029752     3.10647165501676                    5 5.88669456727112e-16                   15                    0                    0                    0 
95      1.8034143758293     3.82189985485386    0.989415811760579     0.99153252289505     1.61479386421847                    2 7.93760686712868e-16                   13                    0                    0                    0 
86     4.41684980412825     4.05491357889817    0.927568798195781       0.928253029752     2.49833466262184                    4 1.13592333739494e-15                    8                    0                    0                    0 
86     4.65476786518624     4.20423572162354     1.00243219131581     0.99153252289505     1.82800552106119                    1 1.46099762751542e-15                   12                    0                    0                    0 
86     5.00150126635062      4.2875768484564     1.16464718142119     0.99829374256475     1.16904475092729                    0  1.4980050535618e-15                    9                    0                    0                    0 
86     5.05698705926568     4.72283396949741    0.998742957633571                    1     3.68498804732517                    3 1.91181856406155e-15                   15                    0                    0                    0 
93     7.14696916104898     4.79758956297959    0.962076326484622     0.96532406315995     3.16811434747649                    6 3.64361534627434e-15                   15                    0                    0                    0 
41     9.05726628644468     3.96624885996449    0.995936543534915     0.99153252289505      1.6742599475115                    2 6.09510326953468e-15                   13                    0                    0                    0 
41     9.02227074208183     4.24642831374558    0.926788736131215       0.928253029752     2.53766967103168                    5 5.47863521232995e-15                   10                    0                    0                    0 
172    0.729884895624826     6.01158719667458     1.14283540916622     0.99829374256475     1.11155564811234                    0 1.37116308444483e-15                   11                    0                    0                    0 
172    0.289184776488201     6.08295531264502    0.998815816337849                    1     3.52677576102099                    4  1.4406573106567e-15                   10                    0                    0                    0 
177     3.15381003406447     5.46354534340949    0.964495393854041     0.96532406315995     3.22674858605403                    4 2.33147590587855e-15                   17                    0                    0                    0 
177     3.33298637587633     5.83272673293028     1.03080560279703     0.99829374256475     1.03407590459771                    0 3.11345137094814e-15                    9                    0                    0                    0 
177     2.95824977146347     6.08111380669067       1.164701028417                    1     3.66559466382874                    3 5.27831547200335e-15                   15                    0                    0                    0 
177     3.60287571031396     6.11626748330698     1.04655006056278     0.99153252289505     1.66063715019334                    2 4.45629313716834e-15                    9                    0                    0                    0 
177     3.86123052906886     6.24879262148154     1.03253189049699       0.928253029752     3.11506428201913                    4 4.25349879512881e-15                   10                    0                    0                    0 
93     7.07127229654603      5.2041964879623     1.00375242154445     0.99829374256475    0.948274317887402                    0 4.54236728451885e-15                    7                    0                    0                    0 
93     6.88826248136954     5.55036260650653    0.991106321963802     0.99153252289505     1.77960092085762                    1 4.73403987570028e-15                   12                    0                    0                    0 
93     6.68654725952191     5.75086265246483    0.930962040794067       0.928253029752     2.99182089803064                    3 3.88964171772654e-15                   11                    0                    0                    0 
93     7.46132718991472      5.3359983255143     1.22855700750996                    1     3.80507788813086                    6 5.69315194740691e-15                   22                    0                    0                    0 
139     9.58563111953588     6.05273232197733    0.964300977969565     0.96532406315995      3.4939570901245                    3 8.00619443631203e-15                   12                    0                    0                    0 
172    0.896301026596988     6.33212875980111    0.991038585812898     0.99153252289505     1.68113499084845                    3 1.29620862075181e-15                   13                    0                    0                    0 
172     1.09897522188143      6.5299891835465    0.925608799047702       0.928253029752     2.95041860053443                    6 1.03264413357776e-15                   16                    0                    0                    0 
139     9.01026412892645     6.94106759072093    0.925580366195216       0.928253029752     3.00513106869157                    8 1.12987980671687e-14                   15                    0                    0                    0 
139     9.12240816249188     6.69670872502289     1.03612037797793     0.99153252289505     1.74439115509245                    3 1.05728100654665e-14                   11                    0                    0                    0 
139     9.33551341307186     6.36921277594224     1.06468702688001     0.99829374256475     1.16555221452307                    0 8.87991937910186e-15                   10                    0                    0                    0 
2    0.294457241071704     8.51715152224214    0.989924325922481     0.99153252289505     1.57203080583428                    3 2.14336018269794e-15                    9                    0                    0                    0 
2    0.557421761918585      8.6350044757431    0.951623205307347       0.928253029752      2.9220774921312                    4 1.78800434609398e-15                   10                    0                    0                    0 
50     2.40840307490383     8.74900223240679    0.983225342276755       0.928253029752     3.31523451109158                    6 2.00625726731678e-15                   14                    0                    0                    0 
50     3.18174744074186     8.02599122253304     1.01288306846369     0.96532406315995     3.37364985225981                    5 3.56990997087124e-15                   13                    0                    0                    0 
50     2.97409730352476     8.38572670946237    0.996515307683044     0.99829374256475    0.986635324176484                    1 3.21859102309906e-15                    9                    0                    0                    0 
50     2.67919077343761     8.64357775667138    0.991370030655276     0.99153252289505     1.66861229098502                    2 2.65083277260143e-15                   14                    0                    0                    0 
50     3.33405457109359      8.6865247950855    0.998225073636135                    1     3.47673448240881                    4  2.9282225929719e-15                   17                    0                    0                    0 
88     5.29772652543724     8.03545914778734    0.964095600357271     0.96532406315995     3.34095091533369                    2 7.16048573146724e-15                   13                    0                    0                    0 
88     5.70965758619346     8.07985575461104    0.997827575233404     0.99829374256475    0.996011042250503                    1 1.05567320468824e-14                    9                    0                    0                    0 
88      5.8393106483823     7.62903403587353    0.999055369160715                    1     3.92938321500109                    3 1.79080229999444e-14                   14                    0                    0                    0 
88     6.06245244443901     8.24487507566856     1.04011125517845     0.99153252289505     1.79362539321079                    2 1.26815044604612e-14                   14                    0                    0                    0 
88     6.26736197481951     8.44976774213707     1.06329990110796       0.928253029752     2.55776710797656                    5  1.1425041854049e-14                   11                    0                    0                    0 
231     8.10638285922581     8.66097876765782     0.92594780295244       0.928253029752     2.76828981882816                    7  2.8793059659348e-15                   15                    0                    0                    0 
6     5.09545387008387     9.95475301601824    0.963862362697559     0.96532406315995     3.15369175375683                    7 5.45870223603825e-15                   13                    0                    0                    0 
231     8.35882120949713     8.76536196271795     1.02537446744286     0.99153252289505     1.58456712485375                    3 3.59922129971113e-15                   12                    0                    0                    0 
231     8.74199861921218     8.84407971174864     1.04687066670239     0.99829374256475     1.05420135408626                    1 3.77106688079066e-15                    9                    0                    0                    0 
231     9.14925515322055     8.84176923166575    0.963606743990622     0.96532406315995     3.46605097444952                    5 3.46669725238949e-15                   11                    0                    0                    0 
137     7.24893428287803    0.570214254128911     2.53044015962975     0.99153252289505     1.66930523226714                    1 1.79778718796624e-15                   15                    0                    0                    0 
137     7.03453253227524     0.75418896777677     2.46194324151575       0.928253029752     2.25762974886876                    7 9.44759980623561e-16                   14                    0                    0                    0 
137     7.44607598900598    0.234665156078288     2.57544514180756     0.99829374256475    0.988861634738838                    0 3.70634840056553e-15                   10                    0                    0                    0 
150     3.79061127999096     1.53603830415847     1.39544883888684                    1     3.20295940693954                    5 1.28069694724316e-15                   20                    0                    0                    0 
127     5.38105618068822      2.4169359609173     2.54444121007856     0.99153252289505     1.50707270910921                    3 1.37843370645697e-15                   15                    0                    0                    0 
254     7.15625254644239     2.44111474676231     1.53822434124002                    1     3.34167947457113                    5 2.56821635904923e-15                   17                    0                    0                    0 
168     9.88216726292867     2.10846764555537     2.48343781539932     0.96532406315995      2.8246068945306                    6 2.05081375451849e-15                   17                    0                    0                    0 
8    0.920288071005144     2.54038410601064     2.41890440336424       0.928253029752     2.26453858181719                    8 3.49066134613159e-15                   14                    0                    0                    0 
8    0.664111039229262     2.62981733625199     2.31458921065059     0.99153252289505     1.54115275822526                    5 4.23259102044061e-15                   17                    0                    0                    0 
8    0.279207488825684     2.69962597135021     2.29315304340832     0.99829374256475    0.941792837383838                    2 4.68198601029126e-15                   13                    0                    0                    0 
8    0.268152056499766     2.92151501820556     1.88000092324446                    1     3.63131469890963                    7 4.31446228807462e-15                   18                    0                    0                    0 
233     3.61205558079653     3.15891962885936     2.50490324592758       0.928253029752     2.17791633292819                   14 9.71052178662803e-16                   21     0.31167078802137    0.400182408896921    0.274026274732977 
127       5.374749566198     2.60649888046231     2.32413968973867       0.928253029752     2.17518537901784                   10 8.19102681245741e-16                   15                    0                    0                    0 
86     5.34691176040155     4.25394505182482     1.39346282009274     0.96532406315995     2.84051722760856                    4 1.27327308640826e-15                   14                    0                    0                    0 
172    0.683621563768207     5.64613939076528     1.33545863966364     0.96532406315995     3.03512188645616                    4  1.3203139550737e-15                   13                    0                    0                    0 
274     5.29498483834379     6.20138812843195     2.21076778631113       0.928253029752     2.45912419493369                    5 8.85886545850412e-16                   13                    0                    0                    0 
139     9.21985287056402     6.24475741943924     1.50193426728948                    1     3.41316539809495                    4 4.94220541327707e-15                   16                    0                    0                    0 
182     1.58611695866657     7.43195160125035     2.55318373653183     0.99829374256475    0.900217308140078                    2 2.31269510407587e-15                    9                    0                    0                    0 
274     5.40977583298227     6.31627897694539     2.45186891487128     0.99153252289505     1.63504054684956                    1 2.24117836332756e-15                   11                    0                    0                    0 
271     7.45723535487902     7.13303291781357     1.92095798352438       0.928253029752     2.49401958256909                   10 8.74441168034436e-15                   14                    0                    0                    0 
271     7.56909416795857     7.28126784600714     2.14461094172241     0.99153252289505     1.59908098230125                    4 9.20418965610009e-15                   15                    0                    0                    0 
271     8.05280085830061     7.50085084050621     2.53003172405288                    1     3.34649192593173                    6 6.62245494690566e-15                   20                    0                    0                    0 
182     2.04921359915451     7.50321565356124     2.53049932516902                    1      3.2100954533326                    7 2.22235230014191e-15                   18                    0                    0                    0 
182     1.45090114951997     7.78942325633656     2.38970039055495     0.96532406315995     2.77540208518027                    6 1.57210101486475e-15                   18                    0                    0                    0 
271     7.58778535061483     7.50119137226785     2.46828945537423     0.99829374256475    0.939349932095854                    3 7.79625114672142e-15                   11                    0                    0                    0 
128      2.3623549236131      9.8672748048997     2.55979087006964     0.99829374256475    0.940073481084971                    2 4.34235050308296e-15                    8                    0                    0                    0 
231     8.74076352524524     9.10742387700996     1.43507160855618                    1     3.65940731770172                    3 3.98071169271476e-15                   19                    0                    0                    0 
111    0.034057449786584    0.193707909404383      2.8032180686327     0.99153252289505     1.49685653284435                    4 3.56661112771179e-15                   16                    0                    0                    0 
111   0.0218826135227608    0.567577175751113     2.91965278407333     0.99829374256475    0.917584145107723                    1 3.68118262856476e-15                   12                    0                    0                    0 
111    0.121681380068597    0.924058691874348      3.1087486288204     0.96532406315995     2.64329501940524                    9 3.45159640384936e-15                   20                    0                    0                    0 
26     2.00284531914556    0.208360691863596     2.76942714297497     0.96532406315995     2.94267469903205                    6 2.23544420308981e-15                   18                    0                    0                    0 
26     2.05055169871016    0.884156905398662     2.74221504298928                    1     3.26515824342935                    5 1.99533319786799e-15                   19                    0                    0                    0 
26     2.30238271577046    0.493948706660141     2.80832363990922     0.99829374256475    0.975660495286973                    2 1.97081443778331e-15                    9                    0                    0                    0 
26     2.94190430669152    0.680363707492327     2.90006932800416       0.928253029752     2.22443574485378                    9  1.3966826325847e-15                   13                    0                    0                    0 
26     2.65611614876564    0.656432884772516     2.85253956650152     0.99153252289505     1.58344955519769                    4 1.74051734808245e-15                   11                    0                    0                    0 
137     7.85008631287712    0.408648643244493     2.73840848277778                    1     3.06340373047069                    5 3.12384094860457e-15                   20                    0                    0                    0 
168     9.62442521873321     1.15189906831213     2.85791292138016       0.928253029752     2.29640596519096                    8 2.89850292933752e-15                   17                    0                    0                    0 
127     5.09745700739761     1.76718843008844     2.90753733638384     0.96532406315995     2.96866254272389                    5 1.90002551205044e-15                   19                    0                    0                    0 
127      5.2916651441033     2.10627182046856     2.76575666896078     0.99829374256475    0.921810572477628                    2 1.85619929275617e-15                   11                    0                    0                    0 
127     5.61024561215679     2.16432014546232     3.10515101695073                    1     3.20497183379092                    4 3.41242529738407e-15                   15                    0                    0                    0 
18     7.51161315720811     2.23377950191765     3.71861353641315                    1      3.2824801407036                    4 3.53300968591813e-15                   15                    0                    0                    0 
168     9.66866038522874     1.78141710686688     2.62573631137521     0.99829374256475    0.918186259553792                    3 2.62855194876348e-15                   12                    0                    0                    0 
168     9.23640733569993     1.96357968946575     2.63080984738345                    1     3.41983882168261                    5 2.46600872374077e-15                   19                    0                    0                    0 
168     9.58675093526176     1.42605677120731     2.76889137331599     0.99153252289505      1.4988601477222                    6 3.10215490228159e-15                   17                    0                    0                    0 
233     3.49290242116319     2.99736495983074     2.71516319737273     0.99153252289505     1.49254051667482                    6 1.10083264037702e-15                   19                    0                    0                    0 
233     3.03624182330607     2.60582890364029     2.97764871755888                    1     3.35233170384291                    5 1.02201651592583e-15                   22                    0                    0                    0 
233     3.50441746842483     2.70825698294686     3.45727041552875     0.96532406315995     3.00178534863341                    6 1.25077078498123e-15                   21                    0                    0                    0 
233     3.43900469330059     2.82982209868783     3.06517451509667     0.99829374256475    0.946396459420663                    3 1.14322257320651e-15                   16                    0                    0                    0 
124    0.052405529781161      4.6086424024288     2.78618785194754       0.928253029752     2.33457352394969                    9 3.85570812611487e-16                   18                    0                    0                    0 
33     1.82594066282057     4.10454401702664     3.02724626891231       0.928253029752     2.24812561823177                    6 3.55665218452298e-15                   18                    0                    0                    0 
33     1.94758448364308     4.34404185753185     2.91611481987453     0.99153252289505     1.56683116867798                    3 2.05850724652123e-15                   16                    0                    0                    0 
33     2.22059816728997      4.5870030584085     2.77498763846809     0.99829374256475    0.962906552150175                    2 1.44398867345656e-15                   14                    0                    0                    0 