ITEM: TIMESTEP
0
ITEM: NUMBER OF ATOMS
0
ITEM: BOX BOUNDS pp pp fm
0.0000000000000000e+00 2.0000000000000000e+01
0.0000000000000000e+00 2.0000000000000000e+01
0.0000000000000000e+00 1.1000000000000000e+02
ITEM: ATOMS mol x y z radius c_voro[1] c_coordination c_kinetic c_voro[2] c_order[1] c_order[2] c_order[3] 
ITEM: TIMESTEP
10000000
ITEM: NUMBER OF ATOMS
4500
ITEM: BOX BOUNDS pp pp fm
0.0000000000000000e+00 2.0000000000000000e+01
0.0000000000000000e+00 2.0000000000000000e+01
0.0000000000000000e+00 1.1000000000000000e+02
ITEM: ATOMS mol x y z radius c_voro[1] c_coordination c_kinetic c_voro[2] c_order[1] c_order[2] c_order[3] 
139    0.737412676692026      1.0911158482582    0.998333513726603                    1      3.6940718444451                    3 3.14743256323438e-14                   14                    0                    0                    0 
139    0.343514833686609    0.566510285732357     1.01760853021341     0.99153252289505     1.62784744757128                    3 3.23373928890312e-14                   13                    0                    0                    0 
139    0.651848150670883    0.689728207236021     1.22553016779246     0.99829374256475    0.932609539024213                    3  2.8401490957927e-14                   10                    0                    0                    0 
139    0.125096484531255    0.397663838117551    0.926553955407454       0.928253029752     2.40139633975998                    9 2.86651026165564e-14                   13                    0                    0                    0 
164     2.79446083907344    0.721508416665569    0.964287080604786     0.96532406315995     3.33172706642317                    3 1.69158477266581e-14                   16                    0                    0                    0 
164      2.8150102766122     1.12465074672862     1.06353467991222     0.99829374256475     1.05959952025532                    1 1.97102425420168e-14                   10                    0                    0                    0 
164      3.2735110187516      1.2000590905912    0.999173999142715                    1     3.46484407619271                    5 1.98552639526137e-14                   13                    0                    0                    0 
329     6.12277394807454      1.1098369357146    0.998249844030278                    1     3.51592994053716                    4 2.61757692856964e-14                   16                    0                    0                    0 
329     5.20081760914181     1.20533955919896    0.955414431494766       0.928253029752     2.69285080126599                    3 2.07423391256515e-14                   10                    0                    0                    0 
205     9.91896751871099    0.123436824361176    0.964219691399303     0.96532406315995     3.49522646853122                    4 1.25568126159163e-13                    9                    0                    0                    0 
164     2.54378469921636     1.70254500085074     1.27479425076516       0.928253029752     2.60764792053635                    6 1.73664152551129e-14                   15                    0                    0                    0 
164     2.71089991297115     1.48220628171821     1.18518405103846     0.99153252289505     1.74859456104726                    3 2.03927297862139e-14                   13                    0                    0                    0 
329      5.4840115372977     1.26040248438203    0.991134272484893     0.99153252289505     1.74774046018211                    1 2.46479158739752e-14                   12                    0                    0                    0 
329     5.81366484635786     1.45367207672726     1.07750011306327     0.99829374256475     1.01293740433359                    1 2.65745958576418e-14                    9                    0                    0                    0 
329     6.07381755824888     1.76095614063746     1.18090791841184     0.96532406315995     3.71624597635041                    5 3.30797870212568e-14                   16                    0                    0                    0 
304     8.69894793574843     1.62348303769641    0.963065762639376     0.96532406315995     3.36175847342393                    5 6.99966595626413e-14                   15                    0                    0                    0 
304     8.02977121191317     1.72697538307612     0.99783307450451                    1     3.85123431236174                    4 7.28039225852482e-14                   14                    0                    0                    0 
304     8.37703055112758     1.46435287635666     1.17245270796062     0.99829374256475     1.08741397193116                    1 6.40677167350242e-14                   11                    0                    0                    0 
68     1.19811671956727     3.41715140364639     1.01980169607731     0.99829374256475    0.971764325321992                    1 1.85986094834754e-14                    6                    0                    0                    0 
68    0.847479143419216       3.590068891982    0.994576107180668     0.99153252289505      1.6888774206869                    1 1.57315167306868e-14                   14                    0                    0                    0 
68     1.07620341858242     3.04144997214176       1.272857475509                    1     3.51242897949908                    5 1.35824932878131e-14                   18                    0                    0                    0 
68     1.60215701645908     3.33719980613732     0.96362977975509     0.96532406315995     3.41671499448317                    5 2.19587326822255e-14                   12                    0                    0                    0 
313     3.63624760484586     3.15939457126895    0.925612277080673       0.928253029752     2.88825676575438                    8  1.8707615228111e-14                   13                    0                    0                    0 
313     3.89856126034452     3.09000274013293     1.02993367289443     0.99153252289505      1.5486475487925                    6   2.258277072414e-14                   12                    0                    0                    0 
313     4.28837431379524     3.06316276113925     1.05837478406606     0.99829374256475     1.01243298722969                    2 2.18340332964968e-14                   10                    0                    0                    0 
313     4.69234804054231     3.08967399373757    0.964042995745575     0.96532406315995     3.28523035822896                    6 1.81463916012075e-14                   14                    0                    0                    0 
122     8.76052588666652     3.55056631129682    0.963604309079368     0.96532406315995     3.16976679721126                    6  9.8481421541905e-14                   11                    0                    0                    0 
122     9.17468433752449     3.56767549951107    0.994847819082426     0.99829374256475     1.00577480134004                    0  1.0092966243042e-13                   12                    0                    0                    0 
122     9.55139712332658     3.46015410045211     0.99166604503471     0.99153252289505     1.64585314433403                    1 9.35881232078099e-14                   12                    0                    0                    0 
122     9.78718466216414     3.29078400543812    0.976678011012548       0.928253029752     2.66868360320321                    7 9.83118281890345e-14                   13                    0                    0                    0 
68    0.643633669537065     3.78622829818847    0.927679591226891       0.928253029752     2.94946738423898                    4 1.32577518330742e-14                   11                    0                    0                    0 
330     6.14745203859143     4.98338562095167     1.01705773530243     0.96532406315995     3.41573449614516                    5 5.75637050377283e-14                   14                    0                    0                    0 
330     6.22975799857581     4.31060815970176    0.999362091094303                    1     3.89355946236368                    3 6.33173161762666e-14                   15                    0                    0                    0 
330     6.46537056619434     4.71623967911087      0.9981643713645     0.99829374256475    0.961594249068911                    1 6.37511255617792e-14                    8                    0                    0                    0 
330     6.83056639822211      4.5746034010903    0.990770662617462     0.99153252289505     1.65821491446249                    2 6.29047962233974e-14                   12                    0                    0                    0 
330     7.12103604225348     4.56800813197838     0.98125635591634       0.928253029752      2.8048572018812                    5 5.21439117056446e-14                   13                    0                    0                    0 
122     9.23037385953642      4.0264082718673     1.07556068559043                    1     3.51436200933781                    6 2.06625847994841e-13                   15                    0                    0                    0 
337     1.99050944953647     5.43044391248576     1.21934318102205     0.99153252289505     1.88313927630509                    3 4.21357263383907e-14                   18                    0                    0                    0 
337     1.79514647799224     6.01714204012456     0.99944172673659                    1     3.92307663731626                    2 4.77222235390312e-14                   14                    0                    0                    0 
337     2.17128092269979     5.74823218624801     1.07857462818833     0.99829374256475     1.02400532734609                    2 4.82062938940575e-14                   10                    0                    0                    0 
337     2.47216895285889      6.0107951064917    0.963148418585458     0.96532406315995     3.14405057279405                    6 4.91897908335109e-14                   14                    0                    0                    0 
314     4.24615477051386     5.03893903263048    0.955652822236947       0.928253029752     3.15058328412184                    6 8.23800657834502e-14                   14                    0                    0                    0 
314     4.20499873659126     5.04417988278691     1.24337725304148     0.99153252289505     1.51917205169703                    5 5.50930820953002e-14                   15                    0                    0                    0 
168     8.49922934496167     5.80964750419222     1.02801414592514       0.928253029752     2.56415124499564                    8 1.13607274946562e-13                   15                    0                    0                    0 
168     8.75006825273773     5.95578213592289     1.01281067704901     0.99153252289505     1.60787112187593                    2 1.44749981151373e-13                   12                    0                    0                    0 
168     9.40349777297792      6.0156100638975    0.999080625270671                    1     3.52261234901431                    4 1.66772678485512e-13                   15                    0                    0                    0 
46   0.0295375616685065     6.87701474239269    0.964434374821701     0.96532406315995     3.62909136781529                    4 8.17941839814743e-14                   13                    0                    0                    0 
92     4.34376255570632     6.97421775779813    0.963969563375084     0.96532406315995     3.19264191935288                    5 4.20992152079807e-14                   13                    0                    0                    0 
92     4.66118785095917      7.2391396084781     1.00702416375509     0.99829374256475    0.998532885765904                    1 5.05869644392073e-14                    9                    0                    0                    0 
92     4.95988570822309     6.96845813962024     1.24694660661621                    1     3.73185603687175                    5 2.58594563341661e-13                   17                    0                    0                    0 
83     6.85076113374386     6.73770909469792    0.926885801450782       0.928253029752      2.6563259010247                    6 1.81861566793765e-13                   12                    0                    0                    0 
83     6.93244813522188     7.00925931817727    0.990872859767208     0.99153252289505      1.6123614769507                    5 2.14283451641659e-13                   15                    0                    0                    0 
83     7.15049778322246     7.33437563192533     1.00627517970852     0.99829374256475    0.948921196480228                    0 1.94127812872772e-13                    8                    0                    0                    0 
168     9.00084539236808     6.25624810816976    0.995075861766508     0.99829374256475    0.952737208192834                    0 1.60718830390493e-13                    8                    0                    0                    0 
168     9.14938960745399     6.64322270070025    0.963748804161529     0.96532406315995     3.24899631024686                    6  1.5920083488044e-13                   14                    0                    0                    0 
318     2.25023912159047     7.92614871222763    0.927315299057349       0.928253029752     2.81109932818346                    4 4.02663502783122e-14                   10                    0                    0                    0 
318     2.48876491217886     8.04677723968675     1.04159932813361     0.99153252289505     1.73148574726948                    2 4.70563513219256e-14                   13                    0                    0                    0 
318     2.81854689931262      8.2564919550767     1.06893203802227     0.99829374256475    0.996876187429052                    1 4.39189682619517e-14                    9                    0                    0                    0 
318     3.14748114912464     8.48770174203038    0.963383957213826     0.96532406315995     3.25830651839432                    8 3.52632072724068e-14                   12                    0                    0                    0 
92      4.8751104109706     7.56697322513843     0.99134755611517     0.99153252289505     1.61467327306492                    3 3.28775893134631e-14                   12                    0                    0                    0 
92     4.95391586593438     7.83906577650853    0.926063733670267       0.928253029752     2.93924213012999                    5 9.81786693167245e-15                   12                    0                    0                    0 
83     7.47183222525267      7.5947605510062    0.964562185040099     0.96532406315995      3.1654784233711                    5 1.45657957301524e-13                   12                    0                    0                    0 
83     6.85285285958788     7.61086183218311     1.24082693647427                    1     3.99363716702375                    4 2.46950714153716e-13                   17                    0                    0                    0 
35    0.776403581985811     9.05436011481225     0.93560871305766       0.928253029752     2.64954654387334                   10 4.10315267088144e-14                   17                    0                    0                    0 
35      0.5516709191198     9.23104362740938    0.988379920549892     0.99153252289505     1.58500162037837                    6  5.0064903787202e-14                   14                    0                    0                    0 
35    0.334144171602382     9.55662491977547     1.00112488461905     0.99829374256475    0.955932064099651                    0 5.29511272472776e-14                   11                    0                    0                    0 
35    0.220858493395343     9.95538846538179    0.970301298358749     0.96532406315995     3.26811656152573                    4 5.44369036711701e-14                   14                    0                    0                    0 
103     7.27880068554756     9.54909722317184    0.998923797553406                    1     3.91044354425307                    3 4.71251992257873e-14                   13                    0                    0                    0 
103     7.67695049799662      9.7540603355912     1.13863240678538     0.99829374256475     1.06910110137593                    1 2.29552452706747e-14                   10                    0                    0                    0 
103     8.18626539198226     9.36937901656477    0.927032996052921       0.928253029752     2.93056151367726                    6 5.46495742816321e-15                   12                    0                    0                    0 
103      7.9328051582365      9.4942973285295    0.995296888113192     0.99153252289505     1.66131011464814                    2 1.25012011267724e-14                   14                    0                    0                    0 
139    0.946232684450467    0.709422894278429      1.5183542945565     0.96532406315995      2.9129792834235                   11 2.10987883948499e-14                   17                    0                    0                    0 
304     8.10627687395363     1.04901808850888     1.62670500499195       0.928253029752     2.24729750159608                    9 4.46915637742585e-14                   19                    0                    0                    0 
304     8.16944901694528     1.24945343357854     1.42585285412228     0.99153252289505     1.73552273753401                    1 5.48896493018284e-14                   16                    0                    0                    0 
87     2.69899664121567     3.39673682653584     2.59135648595366                    1     3.26687054260384                    6 4.52026093863042e-14                   17                    0                    0                    0 
313     4.31631087877898     2.83881600144194     1.46939756427439                    1     3.49454887413576                    4 2.48293375220498e-14                   19                    0                    0                    0 
112     7.18127940824884     3.05352646595843     2.10759161497678       0.928253029752     2.44398354600243                   10 6.39746127690886e-14                   14                    0                    0                    0 
112     7.40070047854663     3.10225137028863     2.29194700903939     0.99153252289505     1.49741263556646                    6 5.34775161150238e-14                   14                    0                    0                    0 
112     7.63256967343704      3.2871163376444     2.54796481744436     0.99829374256475    0.924345378259156                    2 2.75629423913212e-14                   10                    0                    0                    0 
314     3.75168438816464     4.89509434977733     1.88112230181241     0.96532406315995     2.81731022878098                   11 5.39678581772372e-14                   19                    0                    0                    0 
314     4.03482944214817     4.99068948820562     1.59218190731878     0.99829374256475    0.941464351974345                    3 3.51182657705479e-14                   15                    0                    0                    0 
107    0.296179575550322     5.42795097542376     2.27021435989309     0.96532406315995     3.04333778895459                    6 1.39379172032706e-13                   19                    0                    0                    0 
107    0.544516284924223     5.50463749910621     2.59462792236169     0.99829374256475    0.902011587940338                    3 1.04954642548426e-13                   11                    0                    0                    0 
337     1.95153282547332     5.16235427911417     1.32477280195076       0.928253029752     2.63350207266956                   10 3.21225921905255e-14                   19                    0                    0                    0 
314     4.37504072974937     5.16141224384096     1.86633818868691                    1     3.21157927521609                    5 3.07897801455322e-14                   20                    0                    0                    0 
231     7.31807561052932     5.70936725755443     2.45950090857413       0.928253029752     2.49560331646935                    9 1.43196388108333e-13                   17                    0                    0                    0 
231     7.40669023059574     5.94921023578345     2.59781008625306     0.99153252289505     1.59535558334116                    4 1.13916910139132e-13                   14                    0                    0                    0 
183    0.242901827878091     7.96905797734881     2.56148377690662       0.928253029752      2.2002073725113                    9 5.47537260725312e-14                   15                    0                    0                    0 
318     2.90851940483514     8.19197885743073     1.52477702766658                    1     3.11899103692723                    6 4.74728808243024e-14                   16                    0                    0                    0 
234     9.67491754271992      7.5366522472681     2.56489036195057       0.928253029752     2.22445027992229                   14 4.25724543860853e-14                   18    0.468947910637969    0.403413900601541    0.266004330178087 
234      8.8896245321952     8.12701137325197     2.16931862462299     0.96532406315995     2.95039062059234                    6 6.50826893922451e-14                   15                    0                    0                    0 
234     9.51462861955337     7.77385744923357     2.51441475410447     0.99153252289505     1.45884184706146                    8 4.26033679547873e-14                   16                    0                    0                    0 
234      9.2258407503033     8.00132799784397     2.37898132391974     0.99829374256475    0.905793594365329                    3 4.97625084054808e-14                    8                    0                    0                    0 
234     9.35373252446563     8.40709019929943     2.57659806430091                    1      3.5668409848959                    6 5.69600397858326e-14                   20                    0                    0                    0 
195     2.11190586101338     9.93780588617006     1.94505219846816     0.96532406315995     2.99278194615865                    5 6.13677316723314e-14                   21                    0                    0                    0 
344     4.72482891452467     8.89044543535086     2.51365428573304     0.99153252289505     1.62120959553725                    4 2.47219316460625e-14                   19                    0                    0                    0 
344      4.4745981479934     8.93111740043982     2.37139751629376       0.928253029752     2.33228048530586                   11 3.22829370550173e-14                   20                    0                    0                    0 
344     5.36769189639656      8.7678063572625     2.56289731863332                    1     3.51040137722806                    4 1.37067352041237e-14                   13                    0                    0                    0 
283     1.35327126926683     1.12893630040096     3.56644154604887     0.99153252289505     1.58186517497838                    3 4.46036505741642e-14                   18                    0                    0                    0 
283     1.46059771175657     1.06746213026339     3.30336628141221       0.928253029752     2.71359423554735                    5 5.21083661488917e-14                   21                    0                    0                    0 
241     3.48458022875029     1.06627418835967     3.21694155726412     0.99153252289505     1.71635804793135                    2 3.52002770884357e-14                   18                    0                    0                    0 
241     3.30701435186884    0.905310865087293     3.38146450898777       0.928253029752     2.24410678753328                    8 3.27800961091413e-14                   17                    0                    0                    0 
241     3.78368819241704     1.16232147530878     2.98286284686729     0.99829374256475     1.00943022861658                    0 3.11504761951963e-14                   12                    0                    0                    0 
241     4.13571663826085     1.13546640369779      2.7634297543493     0.96532406315995     3.20607322585893                    3 2.57264430694236e-14                   17                    0                    0                    0 
247     6.03554455299456     1.19127589107865     3.09944544130331     0.96532406315995     3.17846272793559                    4  5.4158841028243e-14                   18                    0                    0                    0 
247     6.39919981863287     1.01935633538661     2.99459021829482     0.99829374256475    0.923098309470327                    2 4.66572321047188e-14                   12                    0                    0                    0 
247     6.66499690251868    0.755577276042233     2.87945544522104     0.99153252289505     1.48508761166944                    6 4.31842422940872e-14                   14                    0                    0                    0 
247     6.78173818296685    0.500422179408307     2.80346871073909       0.928253029752     2.21365169636765                    8  3.6425581081605e-14                   17                    0                    0                    0 
240     8.50852839015776    0.889064645775873     3.42934698878693       0.928253029752     2.29437596444399                    7 8.71935616693895e-14                   16                    0                    0                    0 
240     8.72723251577486    0.697596562662531     3.42545953418796     0.99153252289505     1.59912369400314                    3 1.01803680692121e-13                   12                    0                    0                    0 
240     9.09222440518121    0.555344886578956     3.42008559328915     0.99829374256475    0.948350920824521                    1 1.00035206620463e-13                   11                    0                    0                    0 
240     9.50689368468836    0.537014367763799     3.39751383302984     0.96532406315995     2.86530197819192                    8 1.11331555792006e-13                   16                    0                    0                    0 
240     8.99238104617313   0.0973877490149597     3.43901202776838                    1     3.40019819073763                    3 1.14826634130446e-13                   20                    0                    0                    0 
241     3.68228664693926     1.61557924008545     2.91708464874636                    1     3.35300332224109                    5 2.73344505924106e-14                   16                    0                    0                    0 
247     6.67593429703714     1.39755871191726     3.01539014508533                    1     3.24777115838934                    6 4.86915127915366e-14                   23                    0                    0                    0 
209    0.313556806632906      3.2093841884897     3.07527384627037     0.96532406315995     2.82877744670422                    8 8.98196581529632e-14                   20                    0                    0                    0 
87     2.15829555839297     2.78898856458201     3.03772349156403       0.928253029752     2.27422460180028                    7 3.76362386444675e-14                   12                    0                    0                    0 
87     2.26139852216824      3.0334061886042     2.91882673953161     0.99153252289505      1.5669094205613                    2 4.26556268718036e-14                   12                    0                    0                    0 
87     2.28798824412977     3.41078262149953     2.81702540112195     0.99829374256475     0.88155496193975                    3 4.24169167503761e-14                    9                    0                    0                    0 
307     5.78393524556435     3.62851652067618      3.3265594269585                    1     3.31855747984636                    6 1.78192186533348e-13                   19                    0                    0                    0 
112     7.93394168756762     2.93910092221691     2.63803049248204                    1     3.49897958893853                    3 3.29145938722205e-14                   22                    0                    0                    0 
112      7.7972719082927     3.58693686486662     2.78413621480313     0.96532406315995     3.11475948127613                    4 1.00518548643439e-14                   17                    0                    0                    0 
87     2.19170919477321     3.81178945970631     2.76487212688613     0.96532406315995     2.95460354479222                    6 4.05945427109527e-14                   19                    0                    0                    0 
281     4.12642011941369     4.70726144152029      3.7348710771358       0.928253029752      2.1370902017816                    9 6.23327735418022e-14                   19                    0                    0                    0 