ITEM: TIMESTEP
0
ITEM: NUMBER OF ATOMS
0
ITEM: BOX BOUNDS pp pp fm
0.0000000000000000e+00 2.0000000000000000e+01
0.0000000000000000e+00 2.0000000000000000e+01
0.0000000000000000e+00 1.1000000000000000e+02
ITEM: ATOMS mol x y z radius c_voro[1] c_coordination c_kinetic c_voro[2] c_order[1] c_order[2] c_order[3] 
ITEM: TIMESTEP
10000000
ITEM: NUMBER OF ATOMS
4500
ITEM: BOX BOUNDS pp pp fm
0.0000000000000000e+00 2.0000000000000000e+01
0.0000000000000000e+00 2.0000000000000000e+01
0.0000000000000000e+00 1.1000000000000000e+02
ITEM: ATOMS mol x y z radius c_voro[1] c_coordination c_kinetic c_voro[2] c_order[1] c_order[2] c_order[3] 
68     1.22794976692797     1.23176303252231      1.1137014838431     0.95572419725813     2.88757916416578                    7 4.17975278778458e-15                   13                    0                    0                    0 
38     5.10056871534842    0.237576756476625    0.994886787331365     0.92366677176975     2.45330790639441                    8 2.09706843544881e-15                   13                    0                    0                    0 
16     6.92851832029609    0.516695044256162    0.941831887479204     0.92366677176975     2.79165649415363                    6 4.15753118300646e-15                   16                    0                    0                    0 
16     6.97038448214151    0.798480441320187    0.982516603453445     0.98284524179719      1.3580697726583                    4 4.25944312571171e-15                   10                    0                    0                    0 
16     7.12359164910926     1.15925090871131    0.990259766861947    0.991259378759715     1.02306281549319                    0 3.92550741861906e-15                    8                    0                    0                    0 
104     9.14943330607195    0.778702950017079    0.953871871337494     0.95572419725813     4.14317755405195                    3 4.41650074217447e-15                   16                    0                    0                    0 
104     9.30152651029813    0.991817959642816     1.22125127671956    0.991259378759715     1.04460436455334                    1 5.27604049382934e-15                    9                    0                    0                    0 
68     1.09631510694847     1.92421235878429    0.996403449774545                    1     4.11853109563055                    2 2.35219597388619e-15                   15                    0                    0                    0 
68     1.43137801259644     1.53504989019375     1.03199391165768    0.991259378759715     1.04035851119065                    1 3.69394689367243e-15                    9                    0                    0                    0 
68     1.73241437339315     1.78093991773569    0.980975027303452     0.98284524179719     1.37809665638402                    3 3.34847708005421e-15                    8                    0                    0                    0 
68     1.99413586254064     1.90051236377276    0.977060453909767     0.92366677176975      2.5379637776692                    7 3.00724606621055e-15                   12                    0                    0                    0 
229      3.9809603526839     1.79970885866078    0.997033316455004                    1     3.91092899169357                    5 3.15788675355875e-15                   18                    0                    0                    0 
229     4.57728383334752     2.19100923369087    0.953964710025541     0.95572419725813      3.5434543375971                    3  2.6748334747626e-15                   12                    0                    0                    0 
229     4.21375101393032      2.2585972816514      1.0115654175303    0.991259378759715     1.00764266672257                    2 3.23344360089365e-15                    9                    0                    0                    0 
229     3.87646293195064     2.43399002601805      1.1072830110351     0.98284524179719     1.50864239860312                    4 3.50249652529744e-15                   10                    0                    0                    0 
16     6.65571815127456     1.36601474287802     1.04791707854055                    1     3.86703593860886                    4 4.69608896966398e-15                   14                    0                    0                    0 
16      7.3598096333389      1.4476503740064     0.95756559502037     0.95572419725813     3.14841816602872                    5 3.59155464971289e-15                   14                    0                    0                    0 
104     9.31357001792791     1.46987809574794     1.03073954777769                    1     4.11441659965625                    3 5.37076309027575e-15                   12                    0                    0                    0 
200     2.23556972148157     3.74173963509329    0.937201222733025     0.92366677176975     2.65336819169258                    6 1.53748804718474e-15                   13                    0                    0                    0 
229     3.67916853398884     2.62044305579417     1.20278808858923     0.92366677176975     2.60640738045656                    5 3.16338933657615e-15                   14                    0                    0                    0 
84     6.57930699532938     3.36267276731922     1.00710189710204                    1     3.94220570088317                    3 4.69261420719434e-15                   16                    0                    0                    0 
84     7.19883439884702     3.71473574217691    0.954092086833722     0.95572419725813     3.16524219189703                    5  3.9155245218703e-15                   14                    0                    0                    0 
244     9.21005081594282     3.55069588642592    0.997616038741952                    1     4.03292311890839                    2  4.9603928709372e-15                   15                    0                    0                    0 
200       1.783070092782     4.50713341631591     1.06539793153531                    1     3.89899251573883                    6 1.71348614652037e-15                   17                    0                    0                    0 
200      2.2145544529696     4.02536156394098    0.981110123732131     0.98284524179719      1.4127529051114                    3 1.79125629762768e-15                   13                    0                    0                    0 
200     2.28315876465942     4.41124187230147    0.989916869445266    0.991259378759715    0.945493678870157                    2 1.77863878455916e-15                    9                    0                    0                    0 
200     2.44746651939477     4.74560006839877    0.954566410238994     0.95572419725813       3.185346171797                    6 1.57196083889813e-15                   15                    0                    0                    0 
101     4.28113532537775      4.3422212892591    0.922619783857685     0.92366677176975     2.83965904333887                    4 2.93234114432572e-15                   16                    0                    0                    0 
101     4.38438245054587      4.5936681879876     1.01709475346315     0.98284524179719     1.41812051544254                    3  3.7294458574802e-15                    7                    0                    0                    0 
101     4.55375874441352     4.94645739840253     1.04031471938301    0.991259378759715     1.08176039735303                    1 4.44597285537575e-15                    8                    0                    0                    0 
84     6.83794599348022     3.80737492153803    0.989015400644736    0.991259378759715    0.997258740742892                    0  4.1267676067678e-15                    9                    0                    0                    0 
84     6.50809929688165     4.00936796601893     1.05295044155212     0.98284524179719     1.48233193169996                    2 3.78975410821062e-15                   10                    0                    0                    0 
84     6.31855715307258      4.2146502223471     1.12182716169167     0.92366677176975     2.77190035057467                    6 3.04587730723831e-15                   15                    0                    0                    0 
244     9.44400253615993     4.00591651138634     1.05258906751812    0.991259378759715     1.08001962246029                    1 4.55108570882604e-15                   11                    0                    0                    0 
244     9.11715065479566     4.16333216963284     1.20116861157696     0.98284524179719     1.67630143129619                    1 4.15148220338867e-15                   12                    0                    0                    0 
244     9.80065323011993     3.95049154431254    0.953743470522088     0.95572419725813     3.06817861154832                    6 4.28187810835315e-15                   16                    0                    0                    0 
101     4.73993925768088     5.25951307295964    0.954436563654579     0.95572419725813     3.18804563954531                    6 5.27559953426895e-15                   12                    0                    0                    0 
211     7.58870388905914     5.66881599544187    0.998332577750984                    1      3.9974711695334                    6 4.84898132000951e-15                   18                    0                    0                    0 
111     9.80290300992083     6.04423073740767     1.26369098744986                    1     3.70941666076077                    5 4.99113192916079e-15                   22                    0                    0                    0 
44     1.52179363517337     6.71347277869353     1.04398170676946     0.92366677176975     3.44464770550875                    3 4.60614904906131e-15                   16                    0                    0                    0 
44     1.66135207083719     6.75008780807731     1.29296727718832     0.98284524179719     1.47057568542078                    2 4.59568192970937e-15                   17                    0                    0                    0 
91     3.65200028179757     7.20492693147469    0.989732907046359    0.991259378759715     1.00702241873825                    3 3.50899170443607e-15                   12                    0                    0                    0 
91     3.65586625700302       6.831306387772     0.96888008759204     0.95572419725813      3.2176991817481                    5 3.00016429160959e-15                   14                    0                    0                    0 
91     4.14558541294171     7.35079283614918    0.998571166870066                    1     3.78982599707089                    4 3.58700344447442e-15                   13                    0                    0                    0 
223     5.95028505051965     6.72282033524479     1.21246748842206     0.92366677176975     3.21279793764825                    8 3.30798440178432e-15                   12                    0                    0                    0 
211     7.84356492989429     6.26606008466291     1.05942802030222     0.98284524179719     1.46326712356133                    3 4.82938268098617e-15                    9                    0                    0                    0 
211      7.8720362285194     6.51799975889753    0.923314768497093     0.92366677176975     3.10340372810816                    2 4.14128542803019e-15                   14                    0                    0                    0 
55     0.71714981832063     8.37297343233617    0.948862046272018     0.92366677176975     2.56423400333662                    9 2.56053177046112e-15                   14                    0                    0                    0 
55    0.931216222353655     8.56233650483156    0.982451226890091     0.98284524179719     1.32901640453936                    6 3.03977667754545e-15                   12                    0                    0                    0 
55     1.28241450261799     8.73638040393055    0.989948682992338    0.991259378759715    0.940383095120783                    3 3.11168243828412e-15                   10                    0                    0                    0 
91     3.53484377011741       7.578918256464    0.980111923411801     0.98284524179719      1.3558020622238                    4 3.58717191872967e-15                   12                    0                    0                    0 
91     3.38120540722644     7.81970511506197    0.945069466449829     0.92366677176975     2.65715107110792                    7 3.06749043323338e-15                   14                    0                    0                    0 
92     5.67421327364473     8.63655448588483     1.08192774495505                    1     3.90779302338863                    3 3.94932340439567e-15                   16                    0                    0                    0 
92     6.54025946479982     8.44957437835818    0.933535074508328     0.92366677176975     2.81862780246104                    6 3.50512147520387e-15                   12                    0                    0                    0 
92     6.31845146595886     8.62674161388519    0.980694526667742     0.98284524179719     1.44811307571104                    2 3.85365604459252e-15                   11                    0                    0                    0 
130     8.64715912470789     8.64151936925578     1.02464332872965    0.991259378759715     1.00665702228166                    2 3.03845067081017e-15                    7                    0                    0                    0 
130     8.96103701476781     8.40752377547498     1.00428516198281     0.98284524179719     1.43796708061404                    2 3.85524374483678e-15                    8                    0                    0                    0 
130      9.2045977650494     8.27817450369755    0.922078359146597     0.92366677176975      2.5434240810383                    4 3.58637199124585e-15                   10                    0                    0                    0 
55     1.06143018188023     9.20120813650295    0.999024347657427                    1     4.23040583984808                    5 3.01385021308127e-15                   13                    0                    0                    0 
55     1.65075292119428     8.79840290668455     0.96709884551281     0.95572419725813     3.17526710356671                    3 2.83227120353758e-15                   13                    0                    0                    0 
263     3.33041958954123     9.66374410797265     1.00317966700548     0.92366677176975     2.63072655557102                    9  3.0380413568698e-15                   13                    0                    0                    0 
263     3.51165989315974     9.88626886118808    0.982067628585064     0.98284524179719     1.44002545194302                    3 3.58326525482721e-15                   10                    0                    0                    0 
92     5.94518085581103     9.28527281108692    0.954202704599556     0.95572419725813      3.2643662320542                    5 3.35518707012225e-15                   11                    0                    0                    0 
92     6.08107098216391     8.93855743388524    0.991140724355446    0.991259378759715     1.05687993473491                    1 3.73547920915497e-15                   10                    0                    0                    0 
130     8.39787614559139     8.91151766594352    0.953925490554626     0.95572419725813     3.11298155244289                    4 1.85358015524369e-15                   14                    0                    0                    0 
129     2.77441985315054    0.970339355574338     2.46764407300701                    1     3.33047512415762                    5 2.04099894744515e-15                   20                    0                    0                    0 
129     3.37957145841953    0.747376802025665     2.56494021737291     0.98284524179719     1.31830042847981                    4 1.78182333303223e-15                   11                    0                    0                    0 
129     3.56243888664676    0.539430325642558     2.48665357566006     0.92366677176975     2.16983124606304                    9 1.38794991379561e-15                   15                    0                    0                    0 
21     6.13011565059932    0.166214346831586     2.61848468734139     0.92366677176975     2.08750835009768                   12 6.62446337090845e-15                   19      0.3438638339032    0.333246537008004    0.227164104119099 
11     8.04161936483343   0.0422326308081192     2.46881141375769                    1     3.55708071909636                    7 6.69946589103343e-15                   27                    0                    0                    0 
104     9.43638583684765     1.11904639531834     1.56666929871988     0.98284524179719     1.33674229912126                    5 5.57318628387134e-15                   13                    0                    0                    0 
104     9.50395919572291     1.14261342641557     1.84539760340367     0.92366677176975     2.33010849870862                    7 4.91110872896794e-15                   18                    0                    0                    0 
145     7.36201809809734     2.38918626851891     2.58983926782945     0.92366677176975     2.55227470912439                    5 4.66111746044713e-15                   19                    0                    0                    0 
145      8.2285803349643     2.48121124474222     2.37162092803298                    1     3.57929070224997                    7 4.51242792814467e-15                   17                    0                    0                    0 
75     1.09150836207462      3.3091304619189      2.4465169893017     0.95572419725813     2.79066171980033                    7 1.39986345970465e-15                   16                    0                    0                    0 
75     1.38332563712826     3.10748132621665     2.56577469587151    0.991259378759715    0.935043368428514                    3 1.70314416395658e-15                   12                    0                    0                    0 
75     1.73987550056659     2.94742610933399      2.5964707079738     0.98284524179719     1.28158434693399                    9 1.86294794475166e-15                   17                    0                    0                    0 
75     2.01249473626672     2.86843554848375     2.54903364186292     0.92366677176975     2.29759199586622                   11 1.70135927614383e-15                   17                    0                    0                    0 
112     5.13997496382032     3.38532509842084     2.39422102284216                    1     3.39063685658018                    7 3.64503153995844e-15                   21                    0                    0                    0 
112     5.53774203697034     2.83269341982309     2.61090550613489     0.95572419725813     2.79305719945493                    5 6.13447590409704e-15                   15                    0                    0                    0 
145     7.60126823372179      2.5410631573119     2.53980113363996     0.98284524179719     1.37703952447918                    2 5.17843161634402e-15                   11                    0                    0                    0 
145     7.87811308062568      2.8186323398587     2.53984984019838    0.991259378759715    0.985443757147613                    1 5.20381101262517e-15                   10                    0                    0                    0 
145     8.06411263271822      3.1374253488492     2.60163398514334     0.95572419725813     2.59721046409531                    7 5.01831721125983e-15                   12                    0                    0                    0 
244     8.92970963091065     4.33320942586438     1.33834955776466     0.92366677176975     2.22202169627046                   10 3.25740260529746e-15                   15                    0                    0                    0 
101     4.30604552041298     5.04593856449011     1.48045437327319                    1     3.51494199487661                    4  5.7195102370535e-15                   17                    0                    0                    0 
223     5.99655664743207     6.23655400552116     2.11487624735005     0.95572419725813     3.04038925965748                    5 4.97498785409594e-15                   16                    0                    0                    0 
211     7.81575751406304     5.98695602360161     1.33331740207408    0.991259378759715    0.963017076757168                    5 4.75067584219714e-15                    9                    0                    0                    0 
211     7.81326190148146     5.80836312065613      1.6621645450699     0.95572419725813     2.56999309877704                    8 4.11372373629218e-15                   15                    0                    0                    0 
44     1.80165327409873     6.89772765108076     1.62793857722726    0.991259378759715    0.929902629665105                    7 3.80264035630476e-15                   14                    0                    0                    0 
44     1.88096754670211     7.13049594744274     1.91002059171217     0.95572419725813     2.88128713086753                    9 2.99088134691346e-15                   20                    0                    0                    0 
44     1.91478601443377     6.42548377708461     1.79872489171905                    1     3.45697171491926                    9 2.63952289714204e-15                   22                    0                    0                    0 
223     5.95185787103258     6.67000201446703     1.49534340264846     0.98284524179719     1.33337951675621                    6 5.41595048543707e-15                   13                    0                    0                    0 
223     5.97164366545348     6.49544370931512     1.84580829843622    0.991259378759715    0.949003689033237                    4 6.23082513317023e-15                   10                    0                    0                    0 
223     6.06880105786378     6.94628637043109     2.07446217379022                    1     3.53428651603433                    6 1.58153157280553e-14                   24                    0                    0                    0 
110     4.09143060497532     8.72307847173481     2.49752176866232                    1     3.41633625308752                    7 3.96814425758676e-15                   18                    0                    0                    0 
130     8.41315448021885     8.31406339148401     1.34557270984484                    1     3.66959952190057                    4 4.58914921333629e-15                   19                    0                    0                    0 
114     8.91646621957555     9.79487139185228     2.56708006876991     0.95572419725813     2.60264440978043                    8 3.15681772774819e-15                   15                    0                    0                    0 
169     0.28782602712051     1.06786145591759     2.85399434639834     0.92366677176975      2.1917641160757                    7 1.37849218924449e-15                   15                    0                    0                    0 
169    0.406087903429361    0.805521867536438     2.85575519796934     0.98284524179719     1.40628696285215                    2 1.67564740406347e-15                   14                    0                    0                    0 
169    0.655858139971382    0.504759237352207     2.82669677491185    0.991259378759715     0.97336980209122                    3  1.8942135819417e-15                   14                    0                    0                    0 
169    0.355396379642753     0.21496872318447     3.12790342682771                    1     3.37445937191167                    6 2.89335714034186e-15                   19                    0                    0                    0 
169    0.961480911140851     0.29967485162095     2.75904167165008     0.95572419725813     2.64238083742129                    7  1.8515974259362e-15                   17                    0                    0                    0 
129     3.22416097623723     1.08469891782066     2.69043561549431    0.991259378759715     0.96050861995088                    3 1.99717166787492e-15                   10                    0                    0                    0 
21     5.45282837311793    0.928614384157265     2.73235171106134     0.95572419725813     2.95429973845707                    4 4.81108115355436e-15                   21                    0                    0                    0 
21     5.76502471327926     0.72261872330521     2.72046350566397    0.991259378759715    0.949918049256637                    1 6.06769907750613e-15                   10                    0                    0                    0 
21     6.01497166381806    0.424765426430241     2.67048692927467     0.98284524179719     1.28921175594206                    7 6.98524194698162e-15                   15                    0                    0                    0 
21      6.1162575794615    0.983059710061289     2.99210154573701                    1     3.41337510880861                    4 4.90091540032523e-15                   21                    0                    0                    0 
207     9.93788117561705    0.847390616715457     3.70896519515411     0.95572419725813     2.80846963804484                    7 7.20800788519928e-15                   20                    0                    0                    0 
129      3.1850639270463     1.43014984160128     2.82891729849716     0.95572419725813     2.74355324177853                    6 1.93977103523962e-15                   16                    0                    0                    0 
75     1.19134267509463     2.76455350098164     2.89822665878978                    1     3.44811091445678                    5 1.65780598327822e-15                   21                    0                    0                    0 
112     4.53927730222682     2.88863644775826     2.84085359456799     0.92366677176975     2.57640308351547                    7 3.78426255502148e-15                   19                    0                    0                    0 
112     4.80551421941001      2.9592957004325     2.75756970919746     0.98284524179719     1.35082431684411                    6 4.33138846627392e-15                   17                    0                    0                    0 
112     5.18589989082443     2.94889925068115     2.66330212436392    0.991259378759715    0.988544655900851                    1 5.04649654572313e-15                   11                    0                    0                    0 
192     9.94942606599957     3.25292955486407     2.88321555327441     0.95572419725813     2.77873303902512                    9 4.41549198581291e-15                   19                    0                    0                    0 
128      2.0678661062947     4.84116561504366     3.00348498472364     0.92366677176975     2.34866029558073                   10 3.77584330365602e-15                   15                    0                    0                    0 
128     2.35304624147785     4.80809203532798     2.98375023261701     0.98284524179719     1.29867339920992                    3 4.40245191701289e-15                   14                    0                    0                    0 
128     2.71177895201794     4.66954683163099     2.90756761222016    0.991259378759715    0.941471162292254                    4 4.39059934355703e-15                   13                    0                    0                    0 
128     2.99363637062753     4.44812087736359     2.80000814551425     0.95572419725813     2.84749471068224                    8 3.81302698275639e-15                   19                    0                    0                    0 
18     4.74584353455189     4.79793685868468     3.75710051503279     0.98284524179719     1.43252757928106                    2 4.16314544163856e-15                   16                    0                    0                    0 
18      4.7460079239756       4.911367201234      3.4926301726786     0.92366677176975     2.44671722663524                    6 3.91713998477587e-15                   19                    0                    0                    0 
108     6.75139251946547     4.71902723112277      3.2277836031605    0.991259378759715      1.0110704487843                    1  3.0371668178466e-15                    8                    0                    0                    0 
108     6.83397946466475     4.69099776530431     2.86386624707945     0.95572419725813     2.79353684012303                    6 3.33411861807374e-15                   19                    0                    0                    0 
108     6.65057438485055      4.2399409080897     3.38682214408959                    1     3.45990833121838                    5 3.67025219049385e-15                   23                    0                    0                    0 
108     6.71402806786566      4.8552941662287     3.59346508052156     0.98284524179719     1.42079093243291                    4 2.30734100862719e-15                   13                    0                    0                    0 