ITEM: TIMESTEP
0
ITEM: NUMBER OF ATOMS
0
ITEM: BOX BOUNDS pp pp fm
0.0000000000000000e+00 2.0000000000000000e+01
0.0000000000000000e+00 2.0000000000000000e+01
0.0000000000000000e+00 1.1000000000000000e+02
ITEM: ATOMS mol x y z radius c_voro[1] c_coordination c_kinetic c_voro[2] c_order[1] c_order[2] c_order[3] 
ITEM: TIMESTEP
10000000
ITEM: NUMBER OF ATOMS
4500
ITEM: BOX BOUNDS pp pp fm
0.0000000000000000e+00 2.0000000000000000e+01
0.0000000000000000e+00 2.0000000000000000e+01
0.0000000000000000e+00 1.1000000000000000e+02
ITEM: ATOMS mol x y z radius c_voro[1] c_coordination c_kinetic c_voro[2] c_order[1] c_order[2] c_order[3] 
142     1.92676227070607     1.20706616908732     1.11812391719322     0.99829374256475      1.0814643814846                    1 1.00992967129376e-13                    9                    0                    0                    0 
211     4.86065423649162   0.0776004576066751     1.05938615049597       0.928253029752     2.87944802159488                    4  1.4511589122549e-14                   11                    0                    0                    0 
165     6.48141786496174     1.13945359656174     1.27298386960099                    1     3.41596557315715                    5 9.78728300450699e-14                   17                    0                    0                    0 
136     8.05508810890264   0.0651275642256574    0.988328178103007       0.928253029752     2.65724220928258                    9 2.89406544190473e-15                   14                    0                    0                    0 
142     2.37520742965093     1.27717202663336    0.999659769533146                    1     3.82011412676261                    4 6.68280185125834e-14                   13                    0                    0                    0 
142     1.77638882451271     1.54563759694166     0.99068486173878     0.99153252289505     1.65746015728201                    1 3.67860956575279e-14                   12                    0                    0                    0 
142     1.58100657804198     1.75161485263227    0.928188608846905       0.928253029752      2.7455801195825                    3 2.80851238624961e-14                   11                    0                    0                    0 
258     4.20334442177868     2.07094244072799     1.21835814552421     0.99153252289505     1.76361430059639                    2 1.36396137014635e-14                   10                    0                    0                    0 
258     4.30568620944668     2.42210750587431     1.07802727422613     0.99829374256475    0.991588483254716                    1 2.91670966990471e-14                    9                    0                    0                    0 
165      6.0836423555043     1.59371852211886    0.964544344242058     0.96532406315995     3.23837344786194                    6 5.35102269397591e-14                   17                    0                    0                    0 
165     6.49151843044676     1.52964792438111     1.01279545471006     0.99829374256475     1.00645101747682                    1 1.81318714551684e-14                    8                    0                    0                    0 
165     6.87944161989811     1.58183357180071    0.996189575415034     0.99153252289505     1.59990685927858                    2 5.16153713474004e-15                   10                    0                    0                    0 
165     7.13699031996726     1.69699186972556     0.92609059370419       0.928253029752     2.67745003223388                    6 5.22934889019947e-16                   14                    0                    0                    0 
190     9.03768093190827       1.796158582478    0.964361317358245     0.96532406315995     3.43173601141626                    4 3.85609955082885e-14                   12                    0                    0                    0 
190     9.51743569847238     1.31822934130841    0.998064783776051                    1     3.90144963342877                    3  7.0519764950665e-15                   16                    0                    0                    0 
190     9.42086891720691     1.76038062392804     1.12146958972731     0.99829374256475     1.08870746853177                    0  3.5499736546827e-14                    9                    0                    0                    0 
8    0.201624284084901     3.50179177330366     1.05902493268883       0.928253029752     2.69233409398403                    9 4.54831484681937e-14                   15                    0                    0                    0 
63     2.10684691844115     3.56747348306113      1.0121856697318     0.96532406315995     3.12909881584724                    7 3.41353315331083e-14                   14                    0                    0                    0 
258     3.87757686806097     2.59610895153605    0.997419986518741                    1     3.56677660982639                    3  5.3819853990041e-14                   18                    0                    0                    0 
258     4.53760886594778     2.74751403823967    0.963490931769204     0.96532406315995     3.13088855207352                    4  4.5451112230117e-14                   12                    0                    0                    0 
267     6.53342524172949     3.46879357048531     0.92771835643467       0.928253029752     2.62357873103717                    6 1.36590170607379e-15                   14                    0                    0                    0 
267      6.6711446924151      3.7158589057143    0.994790755755628     0.99153252289505     1.61708162577849                    2  6.2383373653849e-15                   12                    0                    0                    0 
63     2.07689806650917      3.9817470209189    0.995554201349398     0.99829374256475    0.924926697473922                    2 9.78284902260244e-15                    8                    0                    0                    0 
63     1.92395832622126     4.34238366723601    0.989710992480301     0.99153252289505     1.57004937954573                    3 7.87989912158195e-16                   11                    0                    0                    0 
63     1.72627055291188     4.55532970788071    0.980757681870388       0.928253029752     2.41768722997733                   10 4.15453188454316e-15                   12                    0                    0                    0 
63     2.53198441972144     4.09548728522281    0.998902259558936                    1     3.66494707944266                    2 3.35098898180615e-14                   13                    0                    0                    0 
145      4.8142765656813     4.65714535100818    0.963490428483921     0.96532406315995     3.29833473830859                    2  5.1769002904872e-14                   13                    0                    0                    0 
145     4.57372466198202     4.94161301316961     1.14790581415321     0.99829374256475     1.11023766001777                    1 4.19369160492923e-14                   10                    0                    0                    0 
267     6.95195696342312     3.98861594294859     1.01000801629476     0.99829374256475    0.973976550452408                    1 1.77212178162883e-14                   10                    0                    0                    0 
267     6.72437995279664     4.31382699807182     1.26000425621556                    1     3.38401557695401                    4 9.87790620315244e-14                   17                    0                    0                    0 
267     7.31885211891133     4.17838326267629    0.963398865930554     0.96532406315995     3.43224437532237                    4 2.38191115454612e-14                   17                    0                    0                    0 
28     9.55605485825509     3.77467201765763    0.963212437121196     0.96532406315995     3.36424999531989                    4 4.81780478175545e-14                   13                    0                    0                    0 
28     9.28007251421182     4.39300268244262    0.998110202312895                    1     3.59389490471904                    4  5.1181333208743e-14                   12                    0                    0                    0 
28     9.68256140160975     4.15937013509163     1.05701838881105     0.99829374256475     1.00816690006656                    1 5.33213664813557e-14                   12                    0                    0                    0 
28     9.91464480118035     4.46056208834334     1.15138046199597     0.99153252289505     1.75783329720942                    3 5.66140300575827e-14                   14                    0                    0                    0 
210    0.701953303509222     6.16134957350721    0.990697521421464     0.96532406315995     3.04479329709666                    4 4.39100718248157e-14                   11                    0                    0                    0 
206     2.63095210394243     6.21480439017143    0.962645772477658     0.96532406315995     3.34118068698468                    3 3.40131463268096e-14                   14                    0                    0                    0 
145     4.78384096810119     5.33357192695398    0.998671120032316                    1     3.75872336241024                    2 7.98792507641601e-14                   15                    0                    0                    0 
341     7.48384075986891     6.06326802109615     0.97629276564949       0.928253029752     2.71665224453486                    4 2.82080132214382e-14                   10                    0                    0                    0 
341     7.25261949028456     6.23891655042614    0.990111316762283     0.99153252289505     1.66860039109695                    0 2.52153810947186e-14                   11                    0                    0                    0 
210    0.582071630330959     6.55933420275368    0.996417919703855     0.99829374256475    0.920820764663983                    1 4.14973124643412e-14                    8                    0                    0                    0 
210    0.596114922104629     6.95080328587689    0.990234002932899     0.99153252289505     1.58220343025351                    2  3.4427400556432e-14                   10                    0                    0                    0 
210     0.70474868105637     7.22044240206375    0.989938793207574       0.928253029752     2.75991376925489                    6 2.38033864312242e-14                   14                    0                    0                    0 
210    0.116376044057195      6.5030244065884    0.999328911384256                    1     3.61327294413194                    2 7.14030369758161e-14                   19                    0                    0                    0 
206      2.6045451683158     6.89135951302112    0.998600726953125                    1     3.54957601695059                    5 2.09574366213207e-14                   16                    0                    0                    0 
206     2.76893953044577     6.51138296509522      1.2191544909752     0.99829374256475      1.0223630554082                    1 1.75291259759912e-14                   10                    0                    0                    0 
246     4.76041030257231      7.3480368383386    0.998990874121421                    1     3.69819755338247                    2 3.08673459970162e-14                   17                    0                    0                    0 
341     6.61171945578788     6.37695249174089     1.02062783581882                    1     3.72550955619611                    1 2.49959002553353e-13                   15                    0                    0                    0 
341      7.0396290707881      6.5676649427606    0.996674369911441     0.99829374256475    0.978294742626914                    0 2.81296166176147e-14                    8                    0                    0                    0 
341      6.9387479956761     6.97076394653591     1.00808951305719     0.96532406315995     3.03386825015785                    4 6.31984582527514e-14                    9                    0                    0                    0 
77     9.50428853631074     6.36545071400268     0.96382634368889     0.96532406315995     3.66813992219185                    4 2.35396844048723e-14                   11                    0                    0                    0 
246     4.18966328946436     8.07864278685747     1.03669908980106       0.928253029752     3.07137707561615                    5 2.99373087985253e-14                   13                    0                    0                    0 
246     4.80691101185505      7.8148196653171    0.997223796391018     0.99829374256475      0.9108473231351                    1 3.75213978921798e-14                    8                    0                    0                    0 
246     4.42847450215096     7.91387388772077     1.01861461351775     0.99153252289505      1.6481144982723                    3  3.5464966757308e-14                   12                    0                    0                    0 
246     5.22004829487701     7.84516004811618    0.962681790308633     0.96532406315995     2.95149690566199                    5 3.77938399972052e-14                   12                    0                    0                    0 
21     8.53279968493857     7.98944448465322    0.927493092826549       0.928253029752      2.4682817226092                    7 1.94965767619069e-14                   13                    0                    0                    0 
21     8.70752754882164     8.19882559521789     1.02817257353783     0.99153252289505     1.65486900316621                    4 2.59267277147469e-14                   14                    0                    0                    0 
21     8.89130475090063     8.54373247736627     1.05553460127023     0.99829374256475     1.01683409822341                    2 5.57919812200357e-14                    9                    0                    0                    0 
348     2.08738880948005     8.80587743414489    0.926117195366061       0.928253029752     3.32353766190349                    4 2.72727417206414e-14                   11                    0                    0                    0 
348     2.00189076701008     8.77631827833936     1.20238332566969     0.99153252289505     1.60671806977215                    4 2.21687906530383e-14                   11                    0                    0                    0 
57     5.07605173621631     9.76907397302266    0.963919520968511     0.96532406315995     3.22357197108586                    6  2.8834396568904e-14                   14                    0                    0                    0 
286     6.85373338630233     8.93298321252823    0.997338410161548                    1     3.41789550865361                    5  2.9807034922831e-14                   12                    0                    0                    0 
286     7.15514269336663     9.51405534049259     1.04472664633641     0.99153252289505      1.5936357612161                    4 5.23870973861347e-14                   16                    0                    0                    0 
286     7.03674759526499     9.24130432044474     1.29982070687332     0.99829374256475    0.874954421439641                    7 2.25016519423637e-14                   13                    0                    0                    0 
286     7.26818897423146     9.76129327492744    0.941767548290631       0.928253029752     2.79951813790759                    4 6.31194587072811e-14                   16                    0                    0                    0 
21     9.02606041774531     8.92598248746168    0.963220227089839     0.96532406315995     3.48922787619879                    4 1.33496195734451e-13                   12                    0                    0                    0 
73    0.609678405171187     1.06637847735088     2.60424727032219       0.928253029752     2.35689656922459                   10 3.46549744260882e-14                   20                    0                    0                    0 
142     1.95799760709801    0.833343776597806     1.29743379080579     0.96532406315995     3.11466570537119                    6 2.40049482618044e-13                   16                    0                    0                    0 
237     3.45429871088147    0.547801449714062      2.4579026317489       0.928253029752     2.30209143920365                    6 1.05540272165114e-13                   14                    0                    0                    0 
237     3.51477003176567    0.289158770606478     2.57602890997401     0.99153252289505     1.55845860151982                    3 1.09684866345399e-13                   11                    0                    0                    0 
55     2.40361357407287     2.46860565595363     2.59805384976135     0.96532406315995     2.86328974674224                    7 1.55200400312899e-13                   19                    0                    0                    0 
258     4.22746081319445     1.80112024463399     1.32381437282385       0.928253029752     2.45638314842257                    6 4.58187432248351e-15                    9                    0                    0                    0 
336     7.86391209315608     2.34516369674234     2.58730381823818                    1     3.49224432962316                    4 8.34432744390646e-15                   20                    0                    0                    0 
190     9.75226886497851     1.84400374035806     1.31294999846873     0.99153252289505     1.79517193200996                    4 5.30059733669985e-14                   13                    0                    0                    0 
190     9.95149608485459     1.99480974600192     1.46151882842797       0.928253029752     2.30673084246243                    7 6.76753890299256e-14                   13                    0                    0                    0 
310     5.49566514314874     3.36602651869833     2.51938117386455     0.96532406315995     3.00858776149985                    7 6.78212482506245e-14                   21                    0                    0                    0 
336      7.3411273488596     2.77673833738407     2.57479942097321     0.96532406315995      2.8986114388156                    6 2.28332535978208e-14                   19                    0                    0                    0 
336     8.07547488067099     2.88936149866932     2.28759066779915     0.99153252289505     1.59965995504389                    3 2.31044002318017e-14                   19                    0                    0                    0 
336     8.27068256031203     3.05579560638688      2.1508416885977       0.928253029752     2.21068820913408                    9 2.39840414205329e-14                   18                    0                    0                    0 
336     7.73521190012556     2.77242324546385     2.44260694735525     0.99829374256475    0.914857718239763                    2  2.1076522391199e-14                   11                    0                    0                    0 
47    0.784765750809134     4.87629827498891     2.59025237112792     0.96532406315995     2.91940745806996                    5 2.87097356745146e-14                   16                    0                    0                    0 
145     4.06487078413044     5.12560850853975     1.54711638238791       0.928253029752     2.16926729148826                   11 1.37069126674065e-13                   16                    0                    0                    0 
145     4.29547710547016     5.10296212977732     1.37157578933488     0.99153252289505     1.68005993159288                    3 7.85027296899898e-14                   18                    0                    0                    0 
206     2.95339512060624     6.68826863435954     1.51609066792876     0.99153252289505      1.5123089868616                    5 1.35600248619565e-14                   13                    0                    0                    0 
206     3.10615588508221     6.72336434114835     1.76091524576973       0.928253029752     2.36454207037027                   10 1.43710923813449e-14                   16                    0                    0                    0 
77     9.29080408591983     6.29648298586171     1.60365816626067                    1       3.163728503838                    7 3.72735079476374e-14                   20                    0                    0                    0 
77     9.63964363167013     6.47031490691707     1.34261203883647     0.99829374256475    0.931757207407179                    4 1.95814763952097e-14                    9                    0                    0                    0 
77     9.85767116159801     6.62632117006458     1.62828587377787     0.99153252289505     1.55758257714763                    5  1.0981939938922e-14                   14                    0                    0                    0 
348     2.08169287998201     8.62952181038226     1.83706470476377                    1     3.18909058704838                    7 8.59529978140607e-15                   20                    0                    0                    0 
21     9.12769093669617     8.46910964251781     1.45378659409143                    1     3.28448750932731                    6 5.53023844656069e-14                   18                    0                    0                    0 
348       1.434638659932     8.81689840263768     1.76007270366743     0.96532406315995     2.99486532000683                    5  3.6782879612603e-15                   12                    0                    0                    0 
348     1.76891793792037     8.77086905821831     1.51730786396151     0.99829374256475    0.968709508475103                    1  1.0647986618064e-14                    7                    0                    0                    0 
304     3.77287715955301     9.42978262415016      2.4343267455572     0.96532406315995     2.79085061956614                    9 9.42142965487316e-15                   19                    0                    0                    0 
286     6.97461524850024     9.03683043790249     1.65636818825802     0.96532406315995     3.01815687665506                    8 3.58761544657695e-15                   24                    0                    0                    0 
215     2.12730560586791       1.031109118919     3.80640660105018       0.928253029752     2.38820936104245                   10 1.49408432266907e-13                   20                    0                    0                    0 
37     5.52502760405654    0.834687912513517     3.30720365282117                    1     3.37415983615442                    4 4.69638485600457e-14                   19                    0                    0                    0 
37     5.24227819010758     1.17840802468618     2.79570959353724     0.96532406315995     2.88530160977417                    7 9.54803415743443e-14                   20                    0                    0                    0 
37     5.55945555564552     1.23133475656606     3.05913583273095     0.99829374256475    0.913356787696484                    2  7.6312171368583e-14                   11                    0                    0                    0 
91      7.4130545864119    0.183625558163925     2.81487638107692     0.99153252289505     1.57023130279964                    1 8.17852897160692e-14                   14                    0                    0                    0 
91     7.48898473225159     0.46271026270053     2.84408210585717       0.928253029752     2.26570144728395                    9  6.7349449049138e-14                   17                    0                    0                    0 
75     9.41549259247666    0.453112107922496     2.85093281710544                    1     3.51141469058724                    3 2.59677200994178e-14                   25                    0                    0                    0 
75     9.78444336370324    0.218010198696708     2.68165769552517     0.99829374256475    0.980308360993634                    0 2.46832680324053e-14                   13                    0                    0                    0 
73    0.558204773967607     1.31771217034707      2.7409530630735     0.99153252289505     1.51718415069075                    7 5.10800653568577e-14                   18                    0                    0                    0 
73    0.513067898272616     1.70235083922743     2.80010756227658     0.99829374256475    0.958917238698645                    1 6.89083605206121e-14                   12                    0                    0                    0 
73    0.391186761565062     1.69275726460497     3.25299231356148                    1     3.44260373725717                    7 6.99778943308324e-14                   21                    0                    0                    0 
73    0.511592062006147     2.11283843795327     2.73458003487372     0.96532406315995     3.06333321367235                    4 8.23748180916395e-14                   17                    0                    0                    0 
55     3.04555871800024      2.3974125157414     2.80434221164266                    1     3.17251593987388                    7 7.10768937788004e-14                   18                    0                    0                    0 
37      5.8618714711057     1.39474185584599     3.24708857122433     0.99153252289505     1.55427702458929                    4 6.23564846710511e-14                   14                    0                    0                    0 
37     6.07096908366844     1.58491825395896     3.31504267146769       0.928253029752     2.18261497037036                    6  5.1149798795772e-14                   15                    0                    0                    0 
55     2.73083435140508     2.71609764169773     2.66491477649343     0.99829374256475    0.897686209295662                    3  1.3526098272985e-13                    9                    0                    0                    0 
55     2.95071639729499     3.03842085980959     2.70017278102701     0.99153252289505     1.52027514145496                    5 1.39785958302834e-13                   15                    0                    0                    0 
55      3.0295813339065     3.31801394209474     2.68946466129511       0.928253029752     2.38027264767693                   10 1.39262037717793e-13                   18                    0                    0                    0 
310     4.95409247234407     3.12168087571533     2.84604792802567                    1     3.13994344523818                    8 6.43283475542801e-14                   22                    0                    0                    0 
310     5.15737102152984     3.52031212894639     2.70525516720579     0.99829374256475    0.928315411224622                    3 5.33463357103699e-14                    9                    0                    0                    0 
47     1.15832126310992     3.89031370081582     2.69013584349716       0.928253029752      2.1896064262829                   12 4.50214102138485e-14                   16     0.39877117947764    0.427571609592908    0.205370809727671 
47    0.971456042537092     4.11179672242644     2.71322900679853     0.99153252289505      1.6010857379032                    5 2.91768976233489e-14                   16                    0                    0                    0 
47    0.403351442481885     4.39567958913094     2.87877572106548                    1     3.40799069714019                    4 8.34681337086691e-15                   18                    0                    0                    0 
47    0.819998198412382     4.47127735879539     2.67692898690543     0.99829374256475    0.924707327749118                    5 1.68443915962594e-14                   12                    0                    0                    0 
310     4.88803028034984     3.77452332520373     2.83298821212089     0.99153252289505     1.60004309952018                    3 2.12092813459303e-13                   15                    0                    0                    0 
310     4.75630334501882     4.02712712649597      2.8908325532376       0.928253029752     2.14291430419085                    9 3.53444139041702e-13                   12                    0                    0                    0 
213     7.59849794431629     4.65377971195338     2.98547607358517     0.96532406315995     2.85116233325869                    8 8.61872915719302e-14                   22                    0                    0                    0 
213     7.95497853110455     4.82462229153532      2.8569050508409     0.99829374256475    0.914850567246344                    2 7.58274578728258e-14                   11                    0                    0                    0 
213     8.61996362165278     4.81604745426611     2.75752200105765       0.928253029752     2.32746909184871                    5  5.2621545790714e-14                   20                    0                    0                    0 
213     8.33480503898519     4.87049493491134     2.77257817244806     0.99153252289505     1.68955848394461                    1 6.35707452315349e-14                   14                    0                    0                    0 