ITEM: TIMESTEP
0
ITEM: NUMBER OF ATOMS
0
ITEM: BOX BOUNDS pp pp fm
0.0000000000000000e+00 2.0000000000000000e+01
0.0000000000000000e+00 2.0000000000000000e+01
0.0000000000000000e+00 1.1000000000000000e+02
ITEM: ATOMS mol x y z radius c_voro[1] c_coordination c_kinetic c_voro[2] c_order[1] c_order[2] c_order[3] 
ITEM: TIMESTEP
10000000
ITEM: NUMBER OF ATOMS
4500
ITEM: BOX BOUNDS pp pp fm
0.0000000000000000e+00 2.0000000000000000e+01
0.0000000000000000e+00 2.0000000000000000e+01
0.0000000000000000e+00 1.1000000000000000e+02
ITEM: ATOMS mol x y z radius c_voro[1] c_coordination c_kinetic c_voro[2] c_order[1] c_order[2] c_order[3] 
230     1.90595244558139     1.13650484715953      1.2766897417781                    1     3.38795440209816                    6 8.51682639851539e-15                   19                    0                    0                    0 
230     1.43788743741988     1.85731570279782    0.926967032949251       0.928253029752     2.67994441145611                    4 4.28774440173205e-15                   12                    0                    0                    0 
230     1.65092065603261     1.67151447950615    0.994800556399689     0.99153252289505      1.7048339991579                    2  5.2446491798327e-15                   12                    0                    0                    0 
230     2.41659770099077     1.45424327704235    0.963639214616889     0.96532406315995     3.42403604968737                    5 4.35363738757264e-15                   14                    0                    0                    0 
230     2.00938145750115     1.51551384044575     1.02035740164425     0.99829374256475    0.937664566123309                    2 5.00448280551514e-15                    6                    0                    0                    0 
347     4.90974847919449     1.73094864371176    0.963156138194349     0.96532406315995     3.54840066975092                    4  2.7720528256686e-15                   12                    0                    0                    0 
347     5.29237471182365      1.8689339815522     1.04890761794725     0.99829374256475     1.07267089509958                    0 3.65857933234191e-15                   10                    0                    0                    0 
347     5.67759509953648      1.9346389861667     1.02112987202032     0.99153252289505     1.62434312872887                    3 4.07469766407658e-15                   12                    0                    0                    0 
347      5.9516320998982     1.91738701235641    0.925669275216699       0.928253029752     2.83558946824503                    6 3.54637933899405e-15                   16                    0                    0                    0 
321     7.79637115645825     1.62588495568496    0.927642341166096       0.928253029752     2.82041662124136                    6 3.24894918628058e-15                   12                    0                    0                    0 
321     7.83823383346494     2.27018648616875     1.11546870555203     0.99829374256475     1.10784089749655                    1 3.59280197013467e-15                   12                    0                    0                    0 
321     7.86888388630807     1.90056725562284    0.989271650953111     0.99153252289505     1.60942325628882                    3 3.47818908645864e-15                   13                    0                    0                    0 
321     8.27798286207295     2.41180509896784     1.03412618009467                    1     3.83049053833233                    2 2.15160119155686e-15                   16                    0                    0                    0 
59    0.766253620753402     3.58578726078857    0.930536564993633       0.928253029752     2.53631224459931                    4 5.22695289215238e-15                   11                    0                    0                    0 
59    0.501121982938627     3.68952218319522    0.989281047408325     0.99153252289505     1.69489629106133                    2 6.33681299434053e-15                   10                    0                    0                    0 
59    0.110608807751418     3.71050990622405     1.01257210577514     0.99829374256475    0.992206951656185                    0 6.77077882364016e-15                    7                    0                    0                    0 
61     2.60727057194014     3.35962952767376    0.986710792393368       0.928253029752     2.41775091036009                    9 3.88521744108573e-15                   14                    0                    0                    0 
61     2.89794025099223     3.36349464553028    0.988393722430709     0.99153252289505     1.58436499116669                    3 4.59182224249064e-15                   11                    0                    0                    0 
61     3.26445422589875     3.50161616074682    0.996964086628561     0.99829374256475     1.00015463176532                    0 4.30866867537177e-15                    8                    0                    0                    0 
61     3.49615187278771     3.09373918549795    0.999018247515004                    1     3.60699602040545                    4 5.11154679902695e-15                   15                    0                    0                    0 
321     7.67551877760629     2.62352270911705     1.26200685005235     0.96532406315995     3.12927692941076                    5 4.20936379359745e-15                   17                    0                    0                    0 
59   0.0727129641261651      4.1222081835902     1.23420260805855                    1     3.48436717219173                    4 5.91419294874347e-15                   14                    0                    0                    0 
61     3.58533732788082     3.76585365850875    0.994017347106304     0.96532406315995     3.16055835162228                    3 3.48193684306252e-15                    8                    0                    0                    0 
314     6.02486379972439      3.8578666820919    0.963931077813098     0.96532406315995     3.14418280514452                    7 5.91006465475792e-15                   13                    0                    0                    0 
314     5.48984517053399     4.18493631038339     1.22180206088909                    1     3.49328135758447                    4 7.71154570859205e-15                   18                    0                    0                    0 
314     5.90367279775794     4.25263666263358     1.01152842168427     0.99829374256475    0.927705853732852                    2 6.57899781567551e-15                    7                    0                    0                    0 
314     5.89753226778459     4.64372936975318    0.989340897209864     0.99153252289505     1.58384830797084                    4 6.22552529419963e-15                   10                    0                    0                    0 
314     5.98375400199027     4.91573632523416    0.933801159797056       0.928253029752     2.58646818420846                    5 4.88067526078281e-15                   11                    0                    0                    0 
106      7.8115125904623     4.48038993454839    0.927049740090979       0.928253029752     2.56443021205895                    6 6.02674849393783e-15                   12                    0                    0                    0 
106     8.07851720481316     4.57596381388071    0.990930904916241     0.99153252289505     1.77367354924459                    0 5.82555252324228e-15                   12                    0                    0                    0 
106     8.38816886468523     4.81466745653487     1.01582906631442     0.99829374256475    0.989853563224329                    1 3.67846766143167e-15                    9                    0                    0                    0 
106     8.67741106817414     4.53421304899904     1.25611206429057                    1     3.51446676373068                    5 5.53016907125102e-15                   17                    0                    0                    0 
327   0.0590716309853391     6.06680690372989     0.96309196768538     0.96532406315995     3.17262235400878                    7 2.75286765666273e-15                   13                    0                    0                    0 
79     1.92548505924415     5.48427454543448     1.12857957079488     0.99829374256475     1.03179316791835                    2 1.81130762820151e-15                    8                    0                    0                    0 
79     1.97080266540822     6.12391341764368    0.926183630180824       0.928253029752     2.56171493877818                    9 1.03996519331307e-15                   12                    0                    0                    0 
79     2.00474224429347     5.84279209664801    0.991952479774882     0.99153252289505     1.63834428313471                    2 1.41774506680554e-15                   10                    0                    0                    0 
79     2.32020252850262     5.26729958315503    0.997538999611667                    1     3.37423876204243                    8 1.66003257442781e-15                   17                    0                    0                    0 
2     4.16582124693848       6.091852688601    0.995458096231136     0.99829374256475    0.966342080077655                    0 7.72571931309552e-15                    8                    0                    0                    0 
2     4.24009937234506      5.6828673063559    0.992324274903218     0.96532406315995     3.05900244608426                    5 7.42201597979455e-15                   10                    0                    0                    0 
106     8.63605659843553     5.14411734278961    0.962814468816525     0.96532406315995      3.0607833428823                    7 1.48449357633509e-15                   13                    0                    0                    0 
327    0.381522362291259     7.07309395626282     1.03449156902066       0.928253029752     2.72693706797696                    4 1.88154165512407e-15                   12                    0                    0                    0 
327    0.196552716250595     6.84950419682189     1.01715711701961     0.99153252289505     1.63309714655048                    2 2.54665055498002e-15                    9                    0                    0                    0 
327   0.0648817885725683     6.48108920355738    0.996744928218647     0.99829374256475    0.915196880585349                    2  2.8665807717455e-15                    9                    0                    0                    0 
2     3.75694084209779     6.62506612125716    0.969846793440692       0.928253029752     2.54958081320901                    8 6.25270702015601e-15                   15                    0                    0                    0 
2     4.60170018908978     6.25226094559325     1.06126375688034                    1     3.55620060631913                    4 9.04477349411666e-15                   15                    0                    0                    0 
2     3.97496152947427     6.43395956343608    0.991104666006841     0.99153252289505     1.66948966887762                    1 7.57629766704955e-15                   13                    0                    0                    0 
248     6.50472299904564     6.83117173908371     1.25033182734938                    1     3.58470002209255                    3 1.32872305164821e-15                   13                    0                    0                    0 
248     7.30305292099692     6.48601072840063    0.927079098133662       0.928253029752     2.60005329176635                    6 1.05847208880326e-15                   14                    0                    0                    0 
248     6.75620512846273     7.39223416730703    0.964530131303231     0.96532406315995     3.34291017149287                    2 1.28663523708173e-15                   13                    0                    0                    0 
248     6.87153627397298     6.99527403512739     1.00831921639135     0.99829374256475     0.98317793685395                    1  1.2960061361118e-15                    9                    0                    0                    0 
248      7.0857950884642     6.66765563891651    0.992735738300428     0.99153252289505     1.66797771754651                    1 1.23542920340226e-15                   11                    0                    0                    0 
335     9.03967464019201     7.43293143033478     1.00056912023581     0.99153252289505      1.6395056559583                    3 2.70157345939857e-15                   13                    0                    0                    0 
335     9.12980848886306     7.16658588311973    0.926795327358429       0.928253029752     2.68008539050686                    5 5.08735712187667e-15                   12                    0                    0                    0 
80     3.88121642871623     8.47599417442365    0.927234646583842       0.928253029752     2.66448202365505                    4 7.51930364317907e-15                   14                    0                    0                    0 
80     4.15122334171441     8.53968030122192     1.01410799059365     0.99153252289505     1.71615061835547                    1  5.7501549186518e-15                   13                    0                    0                    0 
80     4.54253731576944      8.5366296031381     1.03275108223456     0.99829374256475     1.03477132370929                    0 3.21613217379063e-15                   10                    0                    0                    0 
80     4.93877495594057     8.43184416029485    0.963383603392746     0.96532406315995     3.54168214968584                    2 3.11208233218217e-15                   14                    0                    0                    0 
335     8.64514702803199      7.8667831218478     1.29528713161773                    1      3.1812071472028                    8 2.59322180696799e-16                   21                    0                    0                    0 
335     9.02041610567144     7.82387783127174     1.01710751067884     0.99829374256475     0.95948507878379                    2 1.82753534635677e-15                    6                    0                    0                    0 
335     9.11545572307902     8.22495722160635    0.963266100840046     0.96532406315995     3.06497179284279                    8 5.47414090877495e-15                   15                    0                    0                    0 
103    0.499372826915483     8.99431435474475     1.09121292437481                    1     3.71205133904669                    5 2.70861429165287e-15                   15                    0                    0                    0 
103    0.267955623158502     9.88307126538486    0.958863590722028       0.928253029752     2.53402385394675                    7 2.48699771803299e-15                   12                    0                    0                    0 
103    0.253769996211538     9.59427977508889    0.988944761441323     0.99153252289505     1.62395677267737                    2 2.69568744524765e-15                   10                    0                    0                    0 
103    0.105687885896708     9.23168332833109    0.997833142376914     0.99829374256475    0.944962567923678                    2 2.18694602124336e-15                    7                    0                    0                    0 
254     2.19920944757695     9.96680519373986    0.963420674429534     0.96532406315995     3.44114746720033                    4 1.04538608854156e-14                   14                    0                    0                    0 
337     6.51231790771502     9.57606257354759     1.22560376720717                    1     3.51237446496459                    3 3.13128745364554e-15                   18                    0                    0                    0 
337     6.89581214095865     9.72897963012482     1.00289275944867     0.99829374256475    0.966163934500316                    1 1.09408445054334e-15                   11                    0                    0                    0 
337     7.09600531130657     9.39254258208188    0.988185442630992     0.99153252289505     1.60906667306676                    3 3.29613633103562e-16                   13                    0                    0                    0 
337     7.30768168551576     9.20288301574557    0.927119943264645       0.928253029752     2.49429362843687                    7 1.07226183284275e-16                   14                    0                    0                    0 
147     3.94115630782781    0.901704837608314     2.44883840336291     0.99153252289505     1.59261602364536                    3 7.72768705486435e-15                   14                    0                    0                    0 
147     4.13151418795158     0.70581258769787     2.34935605512264       0.928253029752     2.42354126175418                    6 6.99657458906381e-15                   19                    0                    0                    0 
147      3.7925721833465     1.24532822793243     2.56429065101324     0.99829374256475    0.962543001004417                    1 7.04661011041713e-15                   12                    0                    0                    0 
311     6.05121754142788    0.680115565782196     2.52087188007953                    1     3.29082992665054                    7 8.79763916735669e-15                   23                    0                    0                    0 
311     6.45233641810735    0.922157028837264     2.54477215264616     0.99829374256475    0.952293256175275                    3 9.60271948539372e-15                   13                    0                    0                    0 
311     6.67806307053947    0.687787014423657     2.32659407712103     0.99153252289505     1.64398735607462                    3 1.04560777378733e-14                   18                    0                    0                    0 
311     6.91102490134916    0.587489714359437     2.18455228503926       0.928253029752     2.31038868942448                    9 9.69347786667773e-15                   17                    0                    0                    0 
125      8.8323678964463    0.746287692501851     2.45960741885788                    1     3.19547510233233                    5 4.27484380354026e-15                   18                    0                    0                    0 
125     9.11843360775419     1.08238616795014     2.30068646458106     0.99829374256475    0.897968959317055                    4 5.40258773999347e-15                   10                    0                    0                    0 
125     9.25888568237919    0.898467313354892     1.98456849993704     0.99153252289505     1.58644240252242                    4 4.61739484305421e-15                   16                    0                    0                    0 
125     9.40905556721023    0.850833219508204     1.74026002176943       0.928253029752     3.39932296311807                    4 3.64667302483439e-15                   16                    0                    0                    0 
347      5.1994988519988     2.13630280658596     1.42299267799457                    1     3.21330217428753                    5 4.16012492163991e-15                   17                    0                    0                    0 
125     9.06117981493616     1.36993164726085     2.59536544953588     0.96532406315995     3.03745165265774                    7 5.97140713076998e-15                   21                    0                    0                    0 
79     1.73222234190087     5.17056614773452     1.32101830632735     0.96532406315995     3.03166517042972                    8 2.11231753874137e-15                   21                    0                    0                    0 
152     3.45237281720273     5.02724080169116     2.58187955847357       0.928253029752      2.3281109435447                    7 9.68093663732166e-16                   18                    0                    0                    0 
33     2.63652870692389     7.40626682838087       2.224213679487       0.928253029752      2.3084815934148                    8  3.0236894009214e-15                   16                    0                    0                    0 
91     5.15177773950002     7.38722649181998     2.61148554646832                    1     3.26369676504833                    5 1.57983834126334e-15                   16                    0                    0                    0 
122     8.43119269469666      6.3094906877316      2.5290208175451                    1     3.13740031285744                    7 2.16810669809207e-16                   18                    0                    0                    0 
33     2.46004447002819     7.60117030856769      2.1002274655272     0.99153252289505     1.63192312800183                    6 3.00604060672039e-15                   13                    0                    0                    0 
33     2.01836055799693     8.08660592401229     2.09785716340023                    1     3.27594052705027                    6 3.28638928943063e-15                   18                    0                    0                    0 
33     2.14494937669107     7.93492145745286     1.44925558088369     0.96532406315995     3.85691879785596                    4 1.44981867929292e-15                   10                    0                    0                    0 
33     2.26774443168158     7.79994312536495     1.82275033048469     0.99829374256475    0.976193427893561                    2 2.30078496982747e-15                   10                    0                    0                    0 
254     2.65590924522613     9.86623559017777     1.45436666833327                    1     3.29575468161149                    8 8.76531649562289e-15                   18                    0                    0                    0 
80     4.60216942302065     8.85924258890295     1.36803681008104                    1     3.34331927430987                    4 1.13537629213353e-15                   17                    0                    0                    0 
260     8.94816661281259     9.97181355182895     1.83811569282898       0.928253029752     2.27738888036803                    6 4.89838180400787e-15                   20                    0                    0                    0 
192     1.01672232460482     1.04753490029422     3.18171010879975     0.99829374256475     1.04070977518053                    1  4.6718126751884e-15                   13                    0                    0                    0 
192     0.78090538606571    0.713742157335898     3.41198043328664                    1     3.35964857251162                    5 6.37228686975967e-15                   20                    0                    0                    0 
192     1.38862214338528    0.864267915043224     3.15171276648299     0.96532406315995      2.8654500566928                    5 4.50492190463642e-15                   17                    0                    0                    0 
147      3.3532814181681     1.10810421536419     2.65509175286397                    1     3.08458622145779                    5 6.88433125772311e-15                   17                    0                    0                    0 
311     6.33262431648234     1.23428750402674      2.7918342558152     0.96532406315995     3.04255391945115                    6 8.84366633825503e-15                   20                    0                    0                    0 
192    0.726986260916504     1.30752830167999      3.1376653299156     0.99153252289505     1.69240598718543                    3 4.05801025891833e-15                   17                    0                    0                    0 
192    0.587778539591774     1.55167760174845     3.06337560444194       0.928253029752     2.26506912634988                    8 2.88356259630537e-15                   16                    0                    0                    0 
147     3.76550089962113     1.64619489756007     2.67091692553179     0.96532406315995     2.97597176335994                    6 5.79715876777582e-15                   20                    0                    0                    0 
297     1.27812813415431     3.28666815008946     2.69552477219955       0.928253029752     2.32939424091724                    8 5.40883226844712e-15                   18                    0                    0                    0 
297      1.5500311902376     3.18978996870225     2.73002085568358     0.99153252289505     1.61509979891421                    3 6.68668258349125e-15                   12                    0                    0                    0 
297     2.09639596628297     2.61586600565125     2.64917558405786     0.96532406315995      2.6760353993905                   12 5.84415480602423e-15                   19    0.414217867385602     0.35903963574327    0.343628381247729 
297     1.86157971829883     2.95285827060415     2.71315719613609     0.99829374256475      0.9534599055754                    2 6.73867279379835e-15                   10                    0                    0                    0 
297      2.1799281847772      3.2368651411952     2.90821102830263                    1     3.71447104342707                    3 7.64312345855208e-15                   22                    0                    0                    0 
181     4.44141088272212     3.41844056483125     2.64517862147788       0.928253029752     2.22079757478038                    6 4.13810538556811e-15                   12                    0                    0                    0 
181     4.54097412471301     3.60362914134395     3.28388672463964     0.99829374256475     1.01479368342608                    1 1.10126195255434e-15                   12                    0                    0                    0 
181     4.49288496626456     3.44187530397471     2.93032396238231     0.99153252289505     1.63575269471809                    3 2.57910144823189e-15                   12                    0                    0                    0 
181     4.61368417182463     3.21318308092757     3.53351999376913                    1     3.36853070506117                    4 1.87060901954638e-15                   19                    0                    0                    0 
175     6.46319953175273     3.21355592981459     2.76699678038916                    1     3.35688963006792                    3 2.48376324263425e-15                   21                    0                    0                    0 
175     6.89052448021198      3.3448039057966     2.90919032217842     0.99829374256475    0.889021829137596                    3 2.81187630798143e-15                    8                    0                    0                    0 
175     6.99497818554737     3.01296277495899     3.13671392748343     0.96532406315995     2.95411084401789                    8 2.59357020048179e-15                   15                    0                    0                    0 
175     6.91305835543264     3.68953135326943     2.72442368735165     0.99153252289505     1.54383213009622                    3 2.96563243023069e-15                   15                    0                    0                    0 
338     8.82631198060728     3.24614480467431     2.71890805182792       0.928253029752     2.33294837929892                    9 2.80360541349886e-15                   14                    0                    0                    0 
338     9.10348102875713     3.31654729787421     2.77113296364609     0.99153252289505     1.58107161462045                    4 2.23948514993196e-15                   11                    0                    0                    0 
338     9.42101517747847     3.53473478042058     2.84219480133815     0.99829374256475    0.941122858193652                    0 2.26660639476963e-15                    9                    0                    0                    0 
338     9.73698117336896       3.191055762663     2.88804093855696                    1     3.15623662683047                    7 2.43818024629339e-15                   18                    0                    0                    0 
181     4.58202430516865     3.88860484389353     3.58371973697486     0.96532406315995     2.75386385241259                   10 7.98562338113456e-16                   20                    0                    0                    0 
175     7.01729728105826     3.94632982000659     2.63670010112468       0.928253029752      2.5171197791004                    8 2.66774383985955e-15                   22                    0                    0                    0 
338     9.66762455908946     3.86550593253569     2.89289353383146     0.96532406315995     3.04119454532332                    4 7.62065291147938e-15                   19                    0                    0                    0 
159    0.911464618743991     5.01292380260971     3.26816028593272       0.928253029752     2.33348728396425                    8 1.89249290397866e-15                   19                    0                    0                    0 
159    0.759498854841639     5.21359409906766     3.12274889562023     0.99153252289505     1.59575568204735                    4 1.86839718173893e-15                   16                    0                    0                    0 