ITEM: TIMESTEP
0
ITEM: NUMBER OF ATOMS
0
ITEM: BOX BOUNDS pp pp fm
0.0000000000000000e+00 2.0000000000000000e+01
0.0000000000000000e+00 2.0000000000000000e+01
0.0000000000000000e+00 1.1000000000000000e+02
ITEM: ATOMS mol x y z radius c_voro[1] c_coordination c_kinetic c_voro[2] c_order[1] c_order[2] c_order[3] 
ITEM: TIMESTEP
10000000
ITEM: NUMBER OF ATOMS
4500
ITEM: BOX BOUNDS pp pp fm
0.0000000000000000e+00 2.0000000000000000e+01
0.0000000000000000e+00 2.0000000000000000e+01
0.0000000000000000e+00 1.1000000000000000e+02
ITEM: ATOMS mol x y z radius c_voro[1] c_coordination c_kinetic c_voro[2] c_order[1] c_order[2] c_order[3] 
61     1.75925297336138   0.0335160776709252    0.922979188739188     0.92366677176975     2.61873426889657                    5 8.68800817590939e-14                   13                    0                    0                    0 
215      3.6721739077652    0.853042092989932    0.954593944228429     0.95572419725813      3.0982078432834                    3 1.45705427390256e-13                   11                    0                    0                    0 
215     3.69192814704387   0.0963712497252667    0.982073167349388     0.98284524179719       1.449653891998                    2 1.16642060780661e-13                   12                    0                    0                    0 
215     3.73032096969496    0.486120951386713    0.999648262158263    0.991259378759715     1.10095421119312                    0  1.3982220966908e-13                   10                    0                    0                    0 
86     6.67927736601699    0.691167175202711    0.946327931801967     0.92366677176975       2.680663207465                    7 3.87967744680323e-14                   13                    0                    0                    0 
86     6.92805955751302    0.831606914157827    0.980898620722177     0.98284524179719     1.36216540006841                    3 5.43093683142925e-14                   12                    0                    0                    0 
86     7.30784248328311    0.928418004243958    0.989857686145313    0.991259378759715     1.00217740792383                    1 6.55491047588476e-14                    8                    0                    0                    0 
86     7.68109317023859    0.912108496176929    0.968409582383901     0.95572419725813      2.8832728876067                    6 6.57229576768174e-14                   13                    0                    0                    0 
124     9.98843786524353    0.113261493274819     1.05852802204104                    1     3.59120193612319                    3  1.3760479999438e-13                   13                    0                    0                    0 
219    0.313996325545447     1.30989023757209     1.27683603868604                    1      3.6064388943514                    6 1.57714922337785e-13                   22                    0                    0                    0 
281     2.14148105684603     2.06694761925977    0.999757851156885                    1     3.66711510197256                    4 1.57707139311847e-13                   15                    0                    0                    0 
89     4.97213798516247      2.3556531059158    0.998275548587338                    1     4.24729787319903                    4 8.52642292534131e-14                   16                    0                    0                    0 
86     7.18883556799637     1.42915894050601    0.998639914613052                    1     3.69476651330093                    5 8.28755234365378e-14                   17                    0                    0                    0 
259     9.30955022525721     1.99148962787992    0.998240312370879                    1     3.73892799714581                    3 7.08149804908568e-14                   15                    0                    0                    0 
259     9.19082320699357     2.49191102733356     1.01977114571209    0.991259378759715     1.00167513668834                    1 8.66565863501465e-14                    9                    0                    0                    0 
281     2.08967522411525     2.57867739387814     1.02049555034177    0.991259378759715     1.11308776071821                    1 2.22778973662617e-13                    9                    0                    0                    0 
281     1.72140549592346     2.64403118252915     1.03267693550222     0.95572419725813     3.42662892056249                    3  3.0425015346094e-13                   12                    0                    0                    0 
281     2.47690464443978     2.62601328060336    0.981760390538811     0.98284524179719     1.42148510230585                    0 1.77444678437126e-13                   13                    0                    0                    0 
281     2.73842169915201     2.73471702669231    0.930737284923884     0.92366677176975     2.71331513003523                    5  1.4480144953322e-13                   12                    0                    0                    0 
178     7.13868317619484      3.6030839347473     1.06968968741564     0.98284524179719     1.42696517634988                    1 1.03460078268502e-13                    9                    0                    0                    0 
178     7.14548599880639      3.3561488096208     0.92208278649154     0.92366677176975      2.7727334869204                    4 7.89210462224724e-14                   12                    0                    0                    0 
259     8.81714309385644     2.50820560065701     1.03159300902871     0.95572419725813     3.02007848404604                    4 7.02755980477778e-14                   16                    0                    0                    0 
259     9.56849432795294     2.58986965269995     0.98160892828839     0.98284524179719     1.43862263660126                    2 1.00882571335022e-13                   11                    0                    0                    0 
259     9.81348270222954     2.73213961924097     0.93110165447022     0.92366677176975     2.54822863868682                    5 9.73804838508077e-14                   13                    0                    0                    0 
3     1.43887533700662     4.53225919203796    0.953672840663342     0.95572419725813     3.03440341745353                    3 1.09683861066249e-13                   13                    0                    0                    0 
3     1.70644010197934     4.78475214981787     1.02221844112216    0.991259378759715     1.03975815538944                    1 9.48124893243048e-14                    9                    0                    0                    0 
195     4.04454840587897      4.0374653373842     0.92052289969944     0.92366677176975     2.60621431849059                    5 7.79566387995791e-14                   10                    0                    0                    0 
195     4.01060806998491     4.70000207806511     1.03528361994602    0.991259378759715     1.05136686904939                    1 7.27714998451512e-14                    7                    0                    0                    0 
195      4.0580804538426     4.31197523983238     1.00580026338058     0.98284524179719     1.69119430997237                    2 8.15822292117611e-14                   10                    0                    0                    0 
178      7.0826575719891     4.24900582829211    0.998743620116019                    1     4.13181833077377                    3 1.30465603239234e-13                   13                    0                    0                    0 
190     9.06523541169366     4.50632573058397    0.997630490291134                    1     3.80151217225936                    4 1.77794463874244e-13                   18                    0                    0                    0 
190     9.43015780761997     4.71264181283821     1.29637214766597    0.991259378759715    0.980269339132498                    2 1.45431445103514e-13                   10                    0                    0                    0 
3     1.93396618742278     5.10339309067056     1.00253205029848     0.98284524179719     1.38875193296522                    4 7.37955636313891e-14                   10                    0                    0                    0 
3     2.05622003908258     5.35131570674661    0.922535776567806     0.92366677176975     2.51387948423371                    6 5.48074656808418e-14                   10                    0                    0                    0 
195     3.91011819130587     5.05373693228424    0.965889573206348     0.95572419725813     3.00479331970131                    7 6.22305520273451e-14                   12                    0                    0                    0 
14     5.76385164040003     5.75115432578992    0.998988028604564                    1     3.98568057613292                    4 6.84346542487489e-14                   16                    0                    0                    0 
14      5.6607332982755     6.15205312402555     1.30497498872927    0.991259378759715      1.0082715363337                    3 6.87189071446218e-14                   11                    0                    0                    0 
152     7.65422809781782     6.10276578420009    0.982111789457474     0.92366677176975     2.62838266615664                    6 4.85532962559632e-14                   13                    0                    0                    0 
190     9.45661115896697     5.02431762224998     1.06005428383027     0.98284524179719     1.54113923837345                    0 1.63285008529416e-13                   13                    0                    0                    0 
190     9.50943679899464     5.28583939233139    0.952226424940776     0.92366677176975     2.87260870339955                    2 1.81197486997125e-13                   12                    0                    0                    0 
232    0.308460816173931      6.3808104372585    0.981429105851591     0.98284524179719     1.41380715284443                    0 7.95220010865931e-14                   11                    0                    0                    0 
232    0.582319320985049     6.46278947440886    0.948383857664374     0.92366677176975     2.72006416078892                    6 6.34941277559299e-14                   15                    0                    0                    0 
15     3.08791083574606     6.95326024659308    0.987549548488157     0.95572419725813     3.15559574328942                    5 7.90479593663329e-14                   11                    0                    0                    0 
15     3.27445420027459     7.27767304804628    0.987486884222421    0.991259378759715     0.97611606790904                    1 9.15639900600891e-14                    8                    0                    0                    0 
14     5.40062458075921     6.29077634581411     1.04654309144406     0.98284524179719     1.50988154000945                    3 7.16112692385197e-14                   12                    0                    0                    0 
14     5.18341436517412     6.43244129625556    0.921796164912972     0.92366677176975     2.52133520734089                    5 6.22694220944751e-14                   11                    0                    0                    0 
152      7.4008314836186     7.09082422657997     1.09377307446945     0.95572419725813     3.37451007964381                    4  5.4734282314148e-14                   17                    0                    0                    0 
152     7.66580251015863     6.39029922132173    0.980851974603625     0.98284524179719     1.36392500664599                    3 5.79908310189895e-14                   11                    0                    0                    0 
152     7.58134506047352     6.77084342173648     1.02257455182501    0.991259378759715     1.01723484275242                    2  5.9801365132514e-14                    9                    0                    0                    0 
152     8.08067751648827     6.89329540128534     0.99700367479914                    1     4.04633528440713                    4 6.10418904037489e-14                   14                    0                    0                    0 
204    0.762506757786079     8.39514977034514    0.999693135896985                    1     3.84177343125882                    2 7.67345138926346e-14                   15                    0                    0                    0 
15     2.92673618569623     7.64031633764943     1.09957294722274                    1     3.94081200353041                    4 1.03101806862687e-13                   18                    0                    0                    0 
15      3.5625679039562     7.54350003777098     0.99125888772885     0.98284524179719     1.39528276487911                    3 9.25013467318813e-14                    9                    0                    0                    0 
15     3.81938238166748     7.67271781564401     1.00391280160668     0.92366677176975     2.52887731057137                    6 7.87822986761991e-14                   13                    0                    0                    0 
262     5.60685162617349     8.25882856799828     1.02001132153539     0.95572419725813     3.06429262706168                    4 5.18107376601937e-14                   12                    0                    0                    0 
262     5.69729151737214      8.6219124674696      1.0142837957688    0.991259378759715      1.0464882624727                    0 6.18540693184257e-14                    9                    0                    0                    0 
262     6.21155715241772     8.63893071613303    0.999367546046377                    1     3.99136583044262                    3 6.48595310381784e-14                   14                    0                    0                    0 
265     9.36535749322874     8.55869614695742    0.941624951430627     0.92366677176975     3.34178080561424                    8 1.31819852524852e-13                   18                    0                    0                    0 
265     9.57952243876551     8.74725618145362    0.978901232277384     0.98284524179719     1.40552208747698                    5 1.41086535543836e-13                   15                    0                    0                    0 
204    0.668341425810338     9.01391185044692     1.18314253991221     0.98284524179719     1.58440495307773                    2 9.04562210626005e-14                   12                    0                    0                    0 
204    0.997088207082766     8.85112080434321     1.04489511014543    0.991259378759715      1.0157989819252                    3  8.4559609715852e-14                    9                    0                    0                    0 
204     1.35515084118328     8.79168270083384    0.953788807205795     0.95572419725813     3.00545948307849                    4 7.22864900153956e-14                   11                    0                    0                    0 
222       3.131386068428     9.66136623783867     0.99931380578178                    1     3.75460881421495                    3 7.50820660889172e-14                   15                    0                    0                    0 
222     3.60714409766136     9.81319992700725     1.12414203629703    0.991259378759715     1.12166795192398                    1 7.69727128081693e-14                    9                    0                    0                    0 
222     3.76220276210438     9.52530661139624     1.30612100742634     0.95572419725813      2.8167490110402                    6 6.92410608961834e-14                   19                    0                    0                    0 
262     5.67689082707312     9.01201161530993     0.98120526165421     0.98284524179719     1.40257345164679                    0 6.58597570893713e-14                   12                    0                    0                    0 
262     5.58683013574857     9.28108606013827    0.933256886941713     0.92366677176975      2.4672627290641                    7 5.83682663918389e-14                   14                    0                    0                    0 
265     9.93113967805754     8.92011295541986    0.992076036162717    0.991259378759715    0.986978715000246                    2 1.26742023724314e-13                    9                    0                    0                    0 
265     9.71156974267918      9.3856449904361    0.999163104372999                    1     3.59937248755689                    5 1.27404790122293e-13                   14                    0                    0                    0 
119     2.34479419359972    0.806610173242739       2.561213962332     0.95572419725813     2.63207818291093                    7 9.02398047046191e-14                   19                    0                    0                    0 
215     4.07581669585879    0.443605999210798     1.37886645889138                    1     3.69327027005276                    5 1.27875594498152e-13                   17                    0                    0                    0 
228     5.85173362998004    0.177241845877266     2.55120180207484     0.95572419725813     2.84492031700925                    5 9.85954876394822e-14                   16                    0                    0                    0 
2     8.53337284388652     0.51486781893119     2.59372040912434     0.92366677176975     2.32156121913367                    6 1.70979045742913e-13                   15                    0                    0                    0 
205      3.7483580908221     2.26997092935828     2.55547809758337     0.98284524179719      1.4081909995881                    6 6.61402839727675e-14                   19                    0                    0                    0 
205     3.79233096627644     1.99705611721399     2.47550983414898     0.92366677176975      2.2875639403092                   12 5.45635609571171e-14                   20    0.452472875623248    0.352491813044024    0.271911272487362 
89     5.32366262832324     2.29467703828865     1.36934643548545    0.991259378759715     1.04196127948094                    3 8.58126815031801e-14                   11                    0                    0                    0 
89     5.34910604516614     1.92577526353166     1.42684608456196     0.95572419725813     2.95659746189876                    8 7.01712227902482e-14                   16                    0                    0                    0 
205     3.73160155973848     2.66151721194785     2.56540029431326    0.991259378759715    0.958566745672689                    4 7.95363871372935e-14                   11                    0                    0                    0 
205     3.77090275294191     3.02295905797869     2.47675885547582     0.95572419725813     2.70881438544092                   10  9.3528718491157e-14                   19                    0                    0                    0 
89     5.35470690620918     2.68305177102603     1.41280955212098     0.98284524179719     1.46358847836753                    6 9.36649865571114e-14                   12                    0                    0                    0 
89     5.40814519810342     2.94631659845064      1.5159939076099     0.92366677176975     2.73456466553106                    8 8.47621430117656e-14                   18                    0                    0                    0 
289    0.372659951564047     4.64308175196195     2.49473164904394     0.92366677176975      2.2151098360623                    8 1.11171253113778e-13                   15                    0                    0                    0 
3     2.04809919542308     4.54905830780004     1.32668311129285                    1     3.65319506528439                    9 8.91277394744602e-14                   23                    0                    0                    0 
195     4.15569696504515     4.68889185128723      1.5290518186771                    1     3.50119818595103                    6 4.77155764824876e-14                   18                    0                    0                    0 
178     7.18826162400087     3.88045827179452     1.34225743566682    0.991259378759715     1.01133664932344                    0 1.16932069736105e-13                    9                    0                    0                    0 
178     7.28288286289024     4.05831818451728     1.65762193766523     0.95572419725813     2.67190087433757                    8  1.1218334160915e-13                   18                    0                    0                    0 
190     9.46330281856923     4.48378267251511     1.59059485017885     0.95572419725813      2.6670265956542                    8 1.67811198886725e-13                   20                    0                    0                    0 
37      1.5308493875015     6.20325965433918     2.60151161003286                    1     3.53413156121979                    8 9.50385820595347e-14                   24                    0                    0                    0 
14     5.85698214167864     6.09491544680021     1.61844551976447     0.95572419725813     2.74712884704022                   10 5.79582644092711e-14                   20                    0                    0                    0 
37     1.94677565367325      6.4869431958913     2.49422578601493    0.991259378759715    0.974209107367577                    2 9.44985062603027e-14                   12                    0                    0                    0 
37     1.62951514727613     7.07348418301506     2.40153089107963     0.92366677176975     2.31350371684034                    7 7.93859094252913e-14                   15                    0                    0                    0 
37     1.72340607126747      6.8033633061451      2.4336282100908     0.98284524179719     1.37650047472546                    4 9.39116920020517e-14                   11                    0                    0                    0 
37     2.24122970887217     6.26384931990612     2.55395876181049     0.95572419725813      2.6542979240567                   10 8.37354218249289e-14                   20                    0                    0                    0 
267     4.11367039599278     6.37441401024363     2.45031540870894     0.92366677176975     2.20643642033853                   12 7.22081087792276e-14                   17    0.465676247878226    0.392726368087662    0.221725891561653 
116     9.80734921680138     7.31164547710729     2.45237560636944     0.95572419725813     2.78940834903744                    7 7.50303926249306e-14                   21                    0                    0                    0 
116     9.88954732781195     6.94490370285785     1.84466142723454                    1      3.7966815765261                    7  1.4820771622036e-13                   17                    0                    0                    0 
106     8.13762108291534     8.51490089045158     2.39859659857286     0.98284524179719     1.38478164354356                    4 7.20684023980846e-14                   16                    0                    0                    0 
106     8.16982327118312     8.22992820238603     2.37483491207324     0.92366677176975     2.09052349667245                    9 6.10109989976463e-14                   16                    0                    0                    0 
204    0.479219585070736     9.18840044878309     1.31197456241791     0.92366677176975     2.44529399330719                    6 8.21189144837799e-14                   14                    0                    0                    0 
106     8.20298801240682     8.90084678782294     2.42005939331951    0.991259378759715    0.979791572585559                    3 7.69976918949295e-14                   11                    0                    0                    0 
106     7.71221937969101     8.99935004370206      2.2999572850881                    1     3.43436690389067                    9  8.1364965980517e-14                   20                    0                    0                    0 
106      8.3729457641962     9.23376357668286     2.43802800001275     0.95572419725813     2.78315418891255                    7  7.5608853522698e-14                   15                    0                    0                    0 
16    0.101153574145307    0.479192448582322      3.1328792594974     0.95572419725813     2.84057595055119                    9 8.41523160497762e-14                   22                    0                    0                    0 
119     2.10507644318904     1.03129453494509      2.7403631578927    0.991259378759715     1.04599218169916                    1  9.8651864550864e-14                   14                    0                    0                    0 
119     2.24744582366562      1.0236897358299     3.23498865785523                    1     3.45644107172939                    7 9.90043854738835e-14                   17                    0                    0                    0 
278     4.84762740662287     1.13487755404856     3.86239623488338     0.95572419725813     2.85050943824252                    5 6.63536683752626e-14                   18                    0                    0                    0 
228     6.16171229280631   0.0208762056109982     2.69086250400649    0.991259378759715    0.981563547224849                    2 1.34937377997795e-13                   15                    0                    0                    0 
2     8.73201402814395    0.714612739230306     2.65249692104371     0.98284524179719     1.39317770096125                    2 1.84169057306117e-13                   11                    0                    0                    0 
2     8.91340385366609     1.04917537948054     2.74658886374143    0.991259378759715     1.01852950456083                    1 1.64610555312163e-13                   13                    0                    0                    0 
2     9.34166951993084    0.792055366330093      2.8709233988774                    1     3.60526593637122                    3 1.61636002544345e-13                   21                    0                    0                    0 
119     1.83057520368177     1.30056407000426     2.81672224200424     0.98284524179719     1.38940247031278                    2 9.45318732258889e-14                   11                    0                    0                    0 
119     1.63499128537903     1.51034928972959     2.79331019159064     0.92366677176975     2.47592241900408                    4 7.77770715522361e-14                   14                    0                    0                    0 
187     6.23781501232791     2.19753630210863     3.09653244305518     0.95572419725813     2.81420662669674                    8 1.05538760330859e-13                   22                    0                    0                    0 
187     6.57947909320806     2.11261850688136     2.96965959166672    0.991259378759715    0.953221197977983                    3 1.20912491262164e-13                   10                    0                    0                    0 
187     6.91562912136459     1.92417212496876     2.89769541692038     0.98284524179719     1.36864012883888                    4 1.36537820427739e-13                   13                    0                    0                    0 
187     7.13056933418252     1.73283340405849     2.89658617624716     0.92366677176975     2.31460871793403                   12 1.32084704768569e-13                   24    0.504509803965222    0.394576119835455     0.26852399365424 
2     8.98012195181013     1.40719311532448     2.83269398979493     0.95572419725813     2.66484188193154                    7 1.31868894406727e-13                   18                    0                    0                    0 
96    0.286293139530777      2.8127986102209     2.90809420305833     0.95572419725813     3.04532564201426                    4 1.13585932241154e-13                   13                    0                    0                    0 
205     3.37683951795742     2.64547077930801     2.93804981383064                    1     3.65346623716167                    5 5.25384903493519e-14                   24                    0                    0                    0 
187     6.78194106413865     2.55541082584675     2.80255073110166                    1     3.34483204869326                    7 8.38749716655666e-14                   23                    0                    0                    0 
20     8.57800403667036     3.24034992448712     2.74484043171703     0.92366677176975     2.26568110013015                    6 8.97904249609763e-14                   15                    0                    0                    0 
20      8.6140529660054     3.39571477780745     2.98436760901621     0.98284524179719     1.41055245303163                    2 1.18616078066731e-13                   12                    0                    0                    0 
20     8.28775761896638     3.69010966513401     3.46629115292683                    1     3.44019323479859                    4  1.3895467820968e-13                   17                    0                    0                    0 
20     8.75611672511651     3.63593560386782     3.25968481843533    0.991259378759715    0.943381157495426                    2 1.42366824132709e-13                    7                    0                    0                    0 