ITEM: TIMESTEP
0
ITEM: NUMBER OF ATOMS
0
ITEM: BOX BOUNDS pp pp fm
0.0000000000000000e+00 2.0000000000000000e+01
0.0000000000000000e+00 2.0000000000000000e+01
0.0000000000000000e+00 1.1000000000000000e+02
ITEM: ATOMS mol x y z radius c_voro[1] c_coordination c_kinetic c_voro[2] c_order[1] c_order[2] c_order[3] 
ITEM: TIMESTEP
10000000
ITEM: NUMBER OF ATOMS
4500
ITEM: BOX BOUNDS pp pp fm
0.0000000000000000e+00 2.0000000000000000e+01
0.0000000000000000e+00 2.0000000000000000e+01
0.0000000000000000e+00 1.1000000000000000e+02
ITEM: ATOMS mol x y z radius c_voro[1] c_coordination c_kinetic c_voro[2] c_order[1] c_order[2] c_order[3] 
184     3.46525405681409     1.17191366951946     1.25006623583352                    1     3.66922782060587                    4 2.00783143684749e-15                   19                    0                    0                    0 
184     4.11718863972636     1.09987229657191    0.966580923775876     0.95572419725813     3.11553456782423                    4  1.6984661946323e-15                   16                    0                    0                    0 
270     6.15803058009513    0.919544707506361    0.990705294084588    0.991259378759715     1.12462783284792                    0 2.71332543892446e-16                   10                    0                    0                    0 
270     6.13053086012664    0.546930036446935    0.969629980653751     0.95572419725813     3.30843234239422                    3 1.88102054646918e-16                   10                    0                    0                    0 
270       6.662117150188     1.02349271660487    0.999237581710177                    1     3.76584062190867                    5 2.49631851115799e-16                   15                    0                    0                    0 
191     8.59467002892831    0.556264489335068     1.21325518368206                    1     4.05175513410006                    3 3.20221067956602e-15                   18                    0                    0                    0 
191     8.60620229645885     1.22219014797925    0.954445203323733     0.95572419725813     2.97398252045817                    3 2.00640663961295e-15                   12                    0                    0                    0 
191     8.85617344606929    0.948669879757261     1.00682061515963    0.991259378759715    0.961236315533336                    0 3.39303260318302e-15                    7                    0                    0                    0 
191     9.18160329968475     0.73082852366304    0.988702207809852     0.98284524179719     1.34574350256443                    5 5.01437480573899e-15                   10                    0                    0                    0 
191     9.44125996075042    0.626785120071945    0.921141715250201     0.92366677176975     2.61607968097221                    6 5.39550335559804e-15                   14                    0                    0                    0 
182     1.09090805118971     2.38494949398514    0.999621368984438                    1     3.87066866150841                    6 1.17851190231368e-15                   19                    0                    0                    0 
182     1.32046241233581     1.51800087449494     0.94744055982525     0.92366677176975     2.68041597931867                    7 9.07785335076841e-16                   14                    0                    0                    0 
182      1.3755167795778      1.7983833978439    0.981582745804156     0.98284524179719     1.34829649936516                    5 1.09513613568584e-15                   12                    0                    0                    0 
182     1.54879135226779     2.14994828346371    0.989693009727387    0.991259378759715     1.04394271056149                    0 1.11763107426999e-15                   13                    0                    0                    0 
182     1.80370198820454     2.42300121477804    0.967226125043889     0.95572419725813     3.18729597413954                    4 9.90149342800224e-16                   17                    0                    0                    0 
184     3.63540176566243     2.00585435668631    0.962645572138911     0.92366677176975     2.67321402709568                    4  4.3973706891023e-17                   10                    0                    0                    0 
184     3.68775910702169     1.72359428301741    0.982620337201165     0.98284524179719      1.4651146411333                    1  1.2982931808702e-16                   12                    0                    0                    0 
184     3.86185903669229     1.37242765421476    0.990297318204917    0.991259378759715    0.996940037041667                    1 6.35828959127096e-16                    8                    0                    0                    0 
270     6.07264748299295     1.30205066011342     0.98139692821175     0.98284524179719     1.40242277755528                    2 8.37857303476768e-16                    8                    0                    0                    0 
270     5.93972000684913     1.55489790828742    0.946617813876704     0.92366677176975     2.54760030977148                    4 1.30135945354923e-15                   11                    0                    0                    0 
80     4.47177045107677     3.68776573862626    0.967932271992252     0.95572419725813     3.19598179921385                    5 1.38943832911196e-15                   15                    0                    0                    0 
80     5.07029748004086     3.29864119016178    0.998264817527938                    1     3.72149710466291                    4 1.54074751180667e-15                   14                    0                    0                    0 
140     7.25120667680685     2.85341596668989    0.970896504147926     0.92366677176975     2.71667167851452                    6 5.91969304875489e-15                   14                    0                    0                    0 
140     7.49772009937407     2.99986348851364     0.99529501774405     0.98284524179719     1.34087383896163                    3   4.609327425658e-15                   10                    0                    0                    0 
140     7.74480948207808      3.6034490231554     0.99961296776125                    1     3.87562622328408                    4 6.10682998498887e-16                   15                    0                    0                    0 
140     7.87518466995512     3.10557261706565     0.98948116981224    0.991259378759715     1.00891151494244                    0 4.11309603599723e-15                    9                    0                    0                    0 
140      8.2476614409206       3.097828426245    0.954222424406143     0.95572419725813     3.05041047779805                    3 5.83191847214636e-15                    9                    0                    0                    0 
39    0.861953963842985     4.37221879402726     1.20204384385837     0.98284524179719     1.49959408064886                    2 5.30544454185773e-15                    9                    0                    0                    0 
39     0.62320892504411     4.22958850151252     1.27599272974585     0.92366677176975     2.52928663071408                    7 4.25797760839298e-15                   14                    0                    0                    0 
39     1.07765177487253     4.95297754141102    0.998129555465642                    1        3.68942486431                    5 5.67416191239277e-15                   17                    0                    0                    0 
39     1.22173739725297     4.46514266519343     1.07710882899616    0.991259378759715     1.04639942555065                    1 6.17815762102805e-15                   10                    0                    0                    0 
39     1.57407590353981     4.44099080645013    0.953349541540522     0.95572419725813     3.24608832461734                    4 6.52051489120755e-15                   12                    0                    0                    0 
80       4.838615152233     3.75825041530634    0.990269955603498    0.991259378759715    0.948192629898647                    1 1.83787116805279e-15                    9                    0                    0                    0 
80     5.18568439968591     3.94037588073388    0.982461303996982     0.98284524179719      1.3511238442523                    2  2.2804027163657e-15                   10                    0                    0                    0 
80     5.39526060469169     4.13468617765673    0.948810829682909     0.92366677176975      2.8756082815468                    4 2.28067179122413e-15                   14                    0                    0                    0 
55      9.2508326229295     4.79587546163729    0.922471780624932     0.92366677176975     2.69597399768233                    6 7.85679998759501e-16                   11                    0                    0                    0 
55     9.51949350509411     4.75973816961221      1.0190453698763     0.98284524179719     1.51849532700846                    2 1.54380123685937e-15                   11                    0                    0                    0 
55     9.90689527506289     4.70468848728448     1.04306877168158    0.991259378759715     1.13614521829082                    0 3.51041456333905e-15                    8                    0                    0                    0 
22      3.3061783659435     5.15505192427371     1.09470668995808     0.92366677176975     2.69719606500113                    6 4.79940146566809e-15                   11                    0                    0                    0 
22     3.46435194996883     5.38822148079046      1.0361908216099     0.98284524179719     1.49576884637074                    3 6.39515338296139e-15                   11                    0                    0                    0 
22     3.58825892376282     5.75712211356314     0.98878715389295    0.991259378759715    0.982102647751528                    1 7.91181852381067e-15                    8                    0                    0                    0 
22     3.59867468226843     6.13076271391126    0.970723093678936     0.95572419725813     2.99028833404449                    4 8.58963711721657e-15                   16                    0                    0                    0 
22     4.07919997318028     5.60271219735642    0.999544591002347                    1     3.71497156314165                    5 7.43893167136275e-15                   14                    0                    0                    0 
32     6.12099676572162     5.86703362103258    0.954718710379245     0.95572419725813     2.94200055513936                    6 3.27454503303515e-16                   12                    0                    0                    0 
32     6.48218821793353     5.77550564626414    0.989438462808421    0.991259378759715    0.996404628717618                    1 2.20043294014304e-16                    7                    0                    0                    0 
32     7.00282305611044     5.37125052366385     1.12652990374477     0.92366677176975     2.78458212643888                    5 1.06206602025024e-15                   12                    0                    0                    0 
32     6.81264263363723     5.57508087563569     1.05514624916637     0.98284524179719     1.54811457421374                    1 6.34495828183525e-16                    9                    0                    0                    0 
32     6.74024255467553     6.22081575862528    0.998825783847784                    1     3.80617392657028                    3  8.9421037728188e-17                   16                    0                    0                    0 
100       1.246225602495     7.31961161397951    0.969304118536842     0.95572419725813     3.16203177739148                    5 1.04072442711971e-15                   13                    0                    0                    0 
100     1.76661841768997     6.83080570553185    0.998160377751901                    1     3.68445672093623                    3 1.70759467958507e-15                   16                    0                    0                    0 
100     1.61979203621335     7.32413287033523    0.990978397344035    0.991259378759715     1.05084239739601                    1 1.69450257395313e-15                   11                    0                    0                    0 
100     1.99356980879564     7.44206608577067    0.982632371656727     0.98284524179719     1.35134920081758                    2 2.38879589167973e-15                   10                    0                    0                    0 
198     8.73499922528738     6.64689484830958    0.998748247384848                    1     3.94596113426679                    2 9.15302998301846e-15                   18                    0                    0                    0 
198     9.62695433013588     6.72084896712068    0.921515937486821     0.92366677176975     2.72658990129732                    7 7.62046901189695e-15                   18                    0                    0                    0 
198     9.37705690584594     6.74213190534972     1.06261641761915     0.98284524179719     1.34414609320122                    5 8.85686848664215e-15                   13                    0                    0                    0 
100     2.23412589989103     7.59631905400157    0.948723369236934     0.92366677176975     2.82488779630571                    4  2.4980666144794e-15                   11                    0                    0                    0 
282      4.1962889874166     7.91003148716092    0.922651875654695     0.92366677176975     2.67305088001966                    6 2.96830346259271e-15                   11                    0                    0                    0 
282     4.83949042623144     7.72564094156279    0.997277192125583    0.991259378759715     1.00965964950826                    0 3.03801722968351e-15                    9                    0                    0                    0 
282     4.47502397730504     7.86916395223941    0.981368837605863     0.98284524179719     1.37184713260878                    3 3.31526610671361e-15                    8                    0                    0                    0 
282     5.13852952665062     7.50488292730573    0.953876592025182     0.95572419725813     2.97839844137087                    5 2.40890453782591e-15                   13                    0                    0                    0 
282     5.02240562745328     8.18322781953485     1.14606407647041                    1     3.59014857831832                    6 3.69982277496683e-15                   18                    0                    0                    0 
236     7.01668193175145     8.17914436663728     1.28819015646732                    1     3.62099688847115                    5 4.50874909080798e-15                   18                    0                    0                    0 
236     7.17574314319723     8.58741202151129     1.01800815913486    0.991259378759715     1.04866701910247                    1 3.75582916165624e-15                   10                    0                    0                    0 
236     7.53899266439546     8.44126112724901    0.998580750993221     0.98284524179719     1.39328285669301                    1 4.43790249144403e-15                   11                    0                    0                    0 
236     7.81087820712383     8.38549810155511    0.922555963976811     0.92366677176975      2.6069199790432                    4 4.40638175904247e-15                   14                    0                    0                    0 
240      9.8408082193594     8.62234616055879     1.02524720024841     0.95572419725813     2.97083970222055                    6 5.52018540485979e-15                   13                    0                    0                    0 
81     1.18978787085572     9.27291665406745     1.18995462610078     0.98284524179719     1.42318979850884                    4 3.61969451096723e-15                   13                    0                    0                    0 
81     1.27030232025335      9.2048046186987    0.922206226114513     0.92366677176975     2.97751688824425                    5 3.42567097934903e-15                   12                    0                    0                    0 
154     3.16393081592064     9.53000587512712    0.999395412524962                    1      3.9391901299437                    3  3.0721400173323e-15                   16                    0                    0                    0 
154     3.46294468509348     9.90599136103168     1.18434643069018    0.991259378759715     1.01789897852016                    1 2.67312618150871e-15                   14                    0                    0                    0 
236     6.87020132643831     8.79415291298074    0.955202916244297     0.95572419725813     2.97647914354069                    4 2.92805221897557e-15                   12                    0                    0                    0 
197     2.04860653386411    0.762163907471279     2.53302889679713     0.95572419725813     2.56431974644619                    9 8.23755496046871e-16                   15                    0                    0                    0 
151     4.94655522523665     2.02046712876399     2.47073276620363     0.95572419725813     2.74204630252939                    8 1.34736382207391e-15                   17                    0                    0                    0 
144     7.67717073258209     1.79724350046611     2.57528901618529                    1     3.34168354343833                    6 9.21769628626059e-16                   23                    0                    0                    0 
36     2.39771703696151     3.62063325625123     2.53691831974484     0.98284524179719     1.41745821509911                    4 8.07902648020902e-16                   16                    0                    0                    0 
36     2.65046452831964      3.3245987218728     2.49033524554076    0.991259378759715    0.994888233144972                    2 1.28186087757838e-15                   12                    0                    0                    0 
36     2.88949039106755     3.57706191420824     2.11071671050258                    1     3.47613299026513                    8 1.15232754286446e-15                   16                    0                    0                    0 
36     2.81434962168955     2.98869762010649     2.50915604612853     0.95572419725813     3.00960630720212                    4 1.68868717485796e-15                   16                    0                    0                    0 
21     6.30589147726374     3.49499489171581     2.49952969144399     0.95572419725813     2.65488703438212                    8  1.6379500909129e-15                   18                    0                    0                    0 
136     9.33094633299886     3.28796243342514     2.51408990647157     0.95572419725813     2.85692139366352                    5 2.00413432768773e-15                   23                    0                    0                    0 
36     2.16877834620273      3.7802798061752     2.60699746495165     0.92366677176975     2.52300497562574                    7 5.10459224446199e-16                   18                    0                    0                    0 
55     9.91247898119413     4.89216077543351     1.52244776797901                    1     3.31426264092293                    9 1.14075615317577e-15                   20                    0                    0                    0 
216    0.725321792641007     6.16683559806791     2.47132758290119     0.92366677176975     2.27026297546721                   10 8.66715035513009e-16                   19                    0                    0                    0 
216    0.559982663136241     5.97814731692589     2.61229118258328     0.98284524179719     1.31743116074891                    4 4.79418676732968e-16                   17                    0                    0                    0 
102     8.24683145592679     5.20575579346565      2.5820470959802                    1      3.4002735880458                    7 2.06219700393675e-15                   20                    0                    0                    0 
142     5.99871056349512     7.08123273155947     2.57406131823374     0.92366677176975     2.38950869916882                    6 9.46116233685277e-16                   17                    0                    0                    0 
142     5.20830307644121     6.42801023477537     2.61271292027544     0.95572419725813     2.84062575919389                    5 1.08614425149877e-15                   16                    0                    0                    0 
198      9.0921243515993     6.84802292677559     1.31018106340504    0.991259378759715    0.987020845317176                    2 8.55824456746996e-15                   13                    0                    0                    0 
198     8.90424037449259     7.01176635020002     1.58934015596702     0.95572419725813      2.7286472048923                   10 7.19665050096263e-15                   19                    0                    0                    0 
81    0.781859554451661     9.10116969523544     1.66900031929728                    1     3.47701391744489                    6 2.40443026263513e-15                   23                    0                    0                    0 
81     1.09856509145581     9.73085470388737     1.78633307117523     0.95572419725813     2.56738856226366                   11 3.19227179710819e-15                   18                    0                    0                    0 
81     1.11611954991886     9.46472896387906     1.52382397034289    0.991259378759715    0.967591795538484                    4 3.42282313389939e-15                    9                    0                    0                    0 
154     3.60505026517673     9.66627504688848     1.46008147666064     0.98284524179719     1.38906840873022                    5 5.68753217040046e-15                   15                    0                    0                    0 
154      3.7682586050628     9.54531832643729     1.66390380416806     0.92366677176975     2.30987816525716                    9 7.29123334752697e-15                   18                    0                    0                    0 
217      5.9254619481253     9.16703964204292      2.5740167612111     0.95572419725813     2.60982780970119                    8 9.15430296977364e-15                   15                    0                    0                    0 
197     1.83710848544001     0.99842954250869     2.73174784843335    0.991259378759715    0.987297039588696                    4 6.00388538049264e-16                   10                    0                    0                    0 
197     1.53913555570411     1.22298749989613     2.85205403966071     0.98284524179719     1.49941393006685                    2 2.98967439117689e-16                   15                    0                    0                    0 
197     2.15747348790905     1.23309764377398     3.05928167282833                    1     3.66092564910884                    4 1.07127327743031e-15                   17                    0                    0                    0 
48     3.75457394940595   0.0454281630017347     2.85654984594187     0.92366677176975     2.18069560861059                    8 1.06496533464852e-16                   14                    0                    0                    0 
144     7.66161891710159      1.1305492794964     2.83190066581473     0.95572419725813     2.93865199669282                    4 1.26666510932519e-15                   13                    0                    0                    0 
197      1.2892620983501     1.36462645171956     2.86973720270134     0.92366677176975     2.44605418501176                    7 1.73232779060601e-16                   20                    0                    0                    0 
151     4.38623119866115     1.89407865810826     2.89574514447251                    1     3.64233461650715                    7 6.40876100638133e-16                   21                    0                    0                    0 
151     4.89499365454112     1.94060598361932     2.83267985964486    0.991259378759715    0.986915711669478                    3  8.3153251504136e-16                    8                    0                    0                    0 
151     4.95741093247469     1.83496734724671     3.20501342602124     0.98284524179719     1.40262428147124                    3 6.69237068724899e-16                   11                    0                    0                    0 
151      5.0768907237179     1.74170606285423      3.4496313810801     0.92366677176975     2.26147530007346                   10 7.54555768109402e-16                   18                    0                    0                    0 
144     7.42473401932438     1.41991548518973     2.81794212944634    0.991259378759715    0.954472033646239                    2 7.58905877282544e-16                   10                    0                    0                    0 
144     6.82587706260125     1.72554833286082     2.85309621704321     0.92366677176975     2.48654909395717                   10 5.17437242966531e-16                   21                    0                    0                    0 
144     7.09910070592572     1.63776654171984     2.83178355663876     0.98284524179719     1.34260640367042                    3 4.64313705622191e-16                   14                    0                    0                    0 
161     9.60541153596262     1.33569734966636     2.82694767320503                    1     3.48853353461356                    5 2.10537587366372e-15                   21                    0                    0                    0 
21     6.61941694898354     3.64259791712597     2.64079972367674    0.991259378759715     0.91031711385979                    5 1.06065681330542e-15                    9                    0                    0                    0 
21     6.96406357987259     3.68468508676884     2.82283019559365     0.98284524179719     1.32492756136911                    2 8.38915302402536e-16                   12                    0                    0                    0 
21     7.20382127315236       3.638280279784     2.97505987083962     0.92366677176975        2.25840019733                    6 1.10913744367328e-15                   15                    0                    0                    0 
136     9.07675297917431      3.2576726322349     3.18120372643747                    1     3.43127949600504                    7  1.9207538140505e-15                   20                    0                    0                    0 
136     9.36548957304865     3.49248468878364     2.82556945341224    0.991259378759715    0.997485958906189                    1 2.09403388502329e-15                   12                    0                    0                    0 
136     9.49294973352817     3.75161260145387     3.09070027980097     0.98284524179719     1.35304240288499                    4 2.12820216013746e-15                   17                    0                    0                    0 
24     4.53224018876249     3.79672699275358     3.12730724029433     0.92366677176975     2.30586117183182                   11 3.15101546420496e-15                   18                    0                    0                    0 
24     4.35553181487281      4.7232789243517     2.72331065498379     0.95572419725813     2.71573609927229                    5 9.92118265174746e-16                   21                    0                    0                    0 
24     4.54907012053423     4.07820904201984     3.06989956693103     0.98284524179719     1.31355655448577                    3 2.11431466653052e-15                   16                    0                    0                    0 
24     4.48802152289388     4.43742098661193     2.92523592144127    0.991259378759715    0.988147603771182                    1 8.56495753047379e-16                   16                    0                    0                    0 
24     4.73820234076448     4.64914907786113     3.32217676393801                    1     3.56480953827711                    5 1.41236033011736e-15                   20                    0                    0                    0 
21     6.54924429840528     4.15254382432735     2.63730264831595                    1      3.6159882965219                    3 1.50025923855895e-15                   24                    0                    0                    0 
136     9.64523356708533     3.95148249010608     3.23095965834574     0.92366677176975     2.25056132628692                    9 1.98626972751682e-15                   17                    0                    0                    0 
216    0.563515367386345     5.38371829985298     2.88067331506408                    1     3.56915859457687                    9 6.39637805215189e-16                   19                    0                    0                    0 
216    0.254970272854642     5.77500193087211       2.751528809082    0.991259378759715    0.992230141017049                    3 1.07595399644934e-16                   16                    0                    0                    0 