ITEM: TIMESTEP
0
ITEM: NUMBER OF ATOMS
0
ITEM: BOX BOUNDS pp pp fm
0.0000000000000000e+00 2.0000000000000000e+01
0.0000000000000000e+00 2.0000000000000000e+01
0.0000000000000000e+00 1.1000000000000000e+02
ITEM: ATOMS mol x y z radius c_voro[1] c_coordination c_kinetic c_voro[2] c_order[1] c_order[2] c_order[3] 
ITEM: TIMESTEP
10000000
ITEM: NUMBER OF ATOMS
4500
ITEM: BOX BOUNDS pp pp fm
0.0000000000000000e+00 2.0000000000000000e+01
0.0000000000000000e+00 2.0000000000000000e+01
0.0000000000000000e+00 1.1000000000000000e+02
ITEM: ATOMS mol x y z radius c_voro[1] c_coordination c_kinetic c_voro[2] c_order[1] c_order[2] c_order[3] 
36    0.532500181332339    0.755032786111599     1.17271536128326     0.96532406315995     3.22717632185718                    4 2.22984732464659e-15                   14                    0                    0                    0 
36    0.184748606450883    0.955258845267619     1.06420512655288     0.99829374256475     1.05368173521843                    1 2.13859585843816e-15                    8                    0                    0                    0 
239     2.45924691419517    0.419210734314387     0.99839106068053                    1     3.75321653315529                    3 1.87914197065077e-15                   13                    0                    0                    0 
239     2.81404851163234    0.259767082815771     1.26058410892564     0.99829374256475    0.933786820523669                    2 2.29020435592114e-15                    9                    0                    0                    0 
38     6.06602079954196    0.133456919699722    0.996693505989019     0.99829374256475     0.91506503216463                    1 9.38005206256923e-16                    7                    0                    0                    0 
38     6.25170345134576    0.505317342145055     0.99053861531835     0.96532406315995     3.15021111626433                    5 8.57530581963472e-16                   11                    0                    0                    0 
251     8.45124028747317    0.343695824989433    0.998481232994379                    1     3.47140606797945                    6 1.77216949040767e-15                   14                    0                    0                    0 
251     9.09765285844766    0.141730848916764    0.965650519140686     0.96532406315995     3.31047319258862                    4 1.62720390946569e-15                   12                    0                    0                    0 
36    0.357327335971107     1.38652239259846    0.998783563174372                    1      3.5645001143531                    3 1.90780572510047e-15                   11                    0                    0                    0 
120     2.24252399249651     2.37018707132735    0.984405797309421     0.96532406315995     3.19787559420158                    3 1.97837438072672e-15                   10                    0                    0                    0 
41     4.46769057603973     1.34909172512555    0.999351966238097                    1      3.5748079498933                    6 2.33109254472275e-15                   16                    0                    0                    0 
41     4.09279887039692     1.87221292602003     1.21269989208836     0.96532406315995     3.08916197580031                    6 1.91272391165782e-15                   16                    0                    0                    0 
41     4.48240889188164     1.81070747248705     1.08148551031343     0.99829374256475     1.05801264987498                    1 2.18395567312891e-15                   10                    0                    0                    0 
41     4.85758094783779     1.87695439322241    0.990157684119093     0.99153252289505     1.64660449517574                    2 2.17359072421529e-15                   13                    0                    0                    0 
41      5.1064015982926     2.01982263218707     0.94342885025007       0.928253029752     2.81832926571897                    6 1.78074231936435e-15                   13                    0                    0                    0 
299     7.40969476025628      2.0465059185285    0.927380783577203       0.928253029752     3.04489691172973                    4 8.40085559608046e-16                   10                    0                    0                    0 
299      7.6547300234169     2.16793279555256     1.02597016969896     0.99153252289505     1.69602184005707                    2 1.00140756674461e-15                   11                    0                    0                    0 
299     7.90409240449902     2.35210520464396     1.26551645863761     0.99829374256475     0.97787252502898                    1 9.56299210907701e-16                   12                    0                    0                    0 
299     8.28870489334406     2.33527203884774     0.99748376651199                    1     3.71598877171033                    3 1.10173901158832e-15                   14                    0                    0                    0 
120      2.3172947662343     2.77891617688568    0.996486910770657     0.99829374256475    0.925405470455266                    1 2.02352727886931e-15                    8                    0                    0                    0 
120     1.87715516120486     2.94115590840089    0.999140906950524                    1     3.47938845484947                    3 1.88877578523311e-15                   14                    0                    0                    0 
120     2.50835058583904     3.12094126564895    0.996385103940992     0.99153252289505      1.5770732684005                    2 1.91210371948075e-15                   10                    0                    0                    0 
120     2.72799379247478     3.31133387412329     1.00014676960434       0.928253029752      2.6223471666859                    8 1.57572866979352e-15                   12                    0                    0                    0 
339     1.79206091946001     4.95577892102792    0.963754772504515     0.96532406315995     3.22094839486391                    6 2.30860267057053e-15                   13                    0                    0                    0 
320     4.75428000952783     3.93309500338848     1.21572113617918     0.99829374256475    0.969810470530179                    2 1.51122436650816e-15                   12                    0                    0                    0 
320     4.43569091056618     4.20059292658818    0.998932083876961                    1      3.5148082371224                    5 1.85951789564041e-15                   15                    0                    0                    0 
320     5.07142410089968     4.03800479209385     1.01103342415571     0.99153252289505     1.60712188552227                    3 1.42754651547216e-15                   11                    0                    0                    0 
320     5.34883779637945     4.05318840838441    0.925489674721099       0.928253029752     2.76791922040349                    5 1.11579570936803e-15                   10                    0                    0                    0 
265     7.20916743182581     4.28514568613941     1.17498054345031     0.96532406315995     3.36790921318368                    4 1.27124517980306e-15                   15                    0                    0                    0 
265     7.51846252332292     4.88350174309621     1.09736936687969                    1     3.79294471934918                    3 1.23983017941633e-15                   13                    0                    0                    0 
265     7.59209607912677     4.42035467706806     1.08620958260975     0.99829374256475     1.04008919525547                    1 1.34871009480502e-15                   11                    0                    0                    0 
265      7.9715567056128     4.42127634946522    0.988781242885041     0.99153252289505      1.5920874263656                    4 1.34302237245663e-15                   14                    0                    0                    0 
265     8.23801594634647     4.32312245349726    0.926556493417131       0.928253029752     2.66451684685063                    7 1.16791332102803e-15                   10                    0                    0                    0 
114    0.202870631435388     6.16075850242417    0.927367822578724       0.928253029752     2.79902450236843                    5 9.20747287486001e-16                   13                    0                    0                    0 
339     2.15047826882659     5.15982144893764     1.01571393070624     0.99829374256475    0.943279580016554                    2 2.60665835964829e-15                    7                    0                    0                    0 
339     1.99632523849099     5.53409017306943       1.252803389509                    1     3.48894572648891                    6 2.94391691112789e-15                   22                    0                    0                    0 
339     2.52957666274813     5.25542274503764    0.990648060923728     0.99153252289505     1.65210099050443                    2 2.56126952609806e-15                   14                    0                    0                    0 
339      2.8126628950925     5.23637246030598    0.927355838472307       0.928253029752     2.58938458058815                    4 2.08459883306314e-15                   10                    0                    0                    0 
205     4.78730321775391     6.09356078791004    0.926120192687258       0.928253029752     2.56313520042613                    5 9.40418515482813e-16                   10                    0                    0                    0 
205     5.05909520383951     6.09325896635087     1.02924952369894     0.99153252289505     1.60732457916502                    3 1.14215931789016e-15                   15                    0                    0                    0 
205      5.4445802156584      6.0269921761745     1.05146474586369     0.99829374256475     1.06047542762553                    1 9.99843738510493e-16                    9                    0                    0                    0 
205     5.82466778220221     5.88342860210712    0.963606646645293     0.96532406315995     3.18177904604458                    5 6.69594425670527e-16                   13                    0                    0                    0 
137     9.41895510588156     5.80092629579753    0.964420447283965     0.96532406315995      3.3749569613849                    4 8.59243558339934e-16                   16                    0                    0                    0 
137     9.41612024877426     6.20587683797994     1.05824542056748     0.99829374256475      1.1094486943572                    0  1.4795075424293e-15                   10                    0                    0                    0 
155     2.22813227952124     7.44850407256243    0.926895969007912       0.928253029752      2.7302961562611                    4 2.42780064718066e-15                    9                    0                    0                    0 
155     2.50123208164755     7.44590566943477     1.02647699175802     0.99153252289505     1.62534284844754                    3 2.81239869622867e-15                   13                    0                    0                    0 
155     3.25896493179426      7.2083685223948    0.964378896802258     0.96532406315995      3.1629952612314                    3 2.44055602324318e-15                   11                    0                    0                    0 
155     2.88477210936533     7.36896726008868     1.04794851289348     0.99829374256475     1.05157097935196                    0 2.74980561452129e-15                    9                    0                    0                    0 
119      7.2573776661193     7.17629439722188    0.997732898187311     0.96532406315995      3.9593017013736                    2  1.6838664808424e-15                   17                    0                    0                    0 
137     9.34969358954868     6.59127655545764     1.03504941601962     0.99153252289505     1.65281059110148                    2 2.06369699829295e-15                   15                    0                    0                    0 
137     9.26782020436518     6.84852371025654    0.927219532133514       0.928253029752     3.09600101904809                    6 2.06524502355396e-15                   15                    0                    0                    0 
157    0.464025965953879     8.11759772341615     1.06187126308452     0.96532406315995     3.12611544931715                    7   2.006726739916e-15                   12                    0                    0                    0 
157    0.095473959892909      8.3043578020516     1.01619637398995     0.99829374256475    0.971580258426414                    0 1.98154579766376e-15                   10                    0                    0                    0 
106       4.986624600913      8.0668099658641    0.962453432259762     0.96532406315995     3.16224762539001                    5 2.37645727467211e-15                   15                    0                    0                    0 
106     5.00306143102865     8.74366621777597    0.998679998681125                    1     3.77200226370073                    4  2.2934560073877e-15                   17                    0                    0                    0 
106     5.27142357961523     8.36067608141148     1.03544899037126     0.99829374256475      1.0163630589773                    0 2.51634923180423e-15                   10                    0                    0                    0 
106     5.61602054854256     8.53402828910222     1.10389925706163     0.99153252289505     1.82015019157798                    1  3.2119013442398e-15                   12                    0                    0                    0 
106     5.89921402308079     8.56621510654633     1.16110151640884       0.928253029752     2.67899285059736                    4 3.68866478647223e-15                   16                    0                    0                    0 
157    0.233797364356014     8.75228939820965    0.999596162153058                    1     3.46080828307571                    4 1.84465155469664e-15                   14                    0                    0                    0 
271     2.16506405063334     9.37136389523486    0.961954860864594     0.96532406315995     3.09764976757127                    6 2.53812637916572e-15                   14                    0                    0                    0 
271     2.45175437663391     9.95739858862552      1.1465866955591                    1      3.5417118257327                    3 2.99145029504481e-15                   16                    0                    0                    0 
271      2.5503501141014     9.52225141580451     1.00175070334392     0.99829374256475    0.941673812588426                    0 2.64201949853224e-15                    8                    0                    0                    0 
271     3.21928555067372     9.47260615837297    0.954671842023691       0.928253029752     3.11696954683139                    3 1.84806441102278e-15                   12                    0                    0                    0 
271      2.9410043062666     9.54912354721904    0.989475174193669     0.99153252289505     1.69386597379856                    2 2.40597266906312e-15                   11                    0                    0                    0 
237     7.60112888589278     9.37042386973208    0.965673115683397     0.96532406315995     3.06138446328205                    7 1.28871672236459e-15                   14                    0                    0                    0 
237     7.92171833452254     9.63351145795742     0.99401795627683     0.99829374256475    0.917369750082405                    2 1.36707429630365e-15                    7                    0                    0                    0 
237     8.27696302829034     9.32719440577801    0.998784211453058                    1     4.05452360676191                    4 1.14260299409745e-15                   17                    0                    0                    0 
237     8.12683148024364     9.96532296449677     1.03025632674609     0.99153252289505     1.62599098337266                    2 1.42328955874528e-15                    9                    0                    0                    0 
239      2.7780300099353    0.511127074693344     1.58969947723687     0.96532406315995     3.08496403654888                    5 1.78059482095466e-15                   15                    0                    0                    0 
166     1.28564908067757     1.99864122182815     2.61822638375542     0.96532406315995     2.81311104782704                    8  1.9512263223016e-15                   19                    0                    0                    0 
148     6.25931608078605      2.3517758850528     2.50803166920509                    1     3.15900461673046                    7 7.86559321409357e-16                   18                    0                    0                    0 
140     9.52931471891561      1.5557650240181     2.50709500190486     0.96532406315995      3.0120810545603                    4 3.12360275028595e-16                   21                    0                    0                    0 
320      4.5089943937774     3.73626924135299      1.4875495558522     0.96532406315995     2.89207771345983                    7 1.36217854650639e-15                   16                    0                    0                    0 
148     6.08130568899173     2.78577558342465     2.50516665198831     0.99829374256475    0.919977721379035                    3 1.42558377227581e-15                   13                    0                    0                    0 
148     6.24572575795364     2.92791362464621     2.15082370821535     0.96532406315995      2.7463062886571                   10  1.3373319458789e-15                   17                    0                    0                    0 
299     8.05370225463332     2.56179951108793     1.59176987889087     0.96532406315995     2.91884339987211                    9 8.20808068680293e-16                   23                    0                    0                    0 
293     1.09152623798189     3.97723043862641     2.47132265445913     0.96532406315995     2.76872006753493                    8 1.33115270231182e-15                   14                    0                    0                    0 
37     9.38924947122442     4.35710879162149     2.37984575740704       0.928253029752     2.35542419432897                    5 1.02454751572979e-15                   14                    0                    0                    0 
37     9.24975720211326     4.53603003181572     2.56160309667465     0.99153252289505     1.62803624918191                    1 1.16888631132838e-15                   16                    0                    0                    0 
351     3.70112177876847     5.07843760491509      2.5487611308087       0.928253029752     2.38239409016445                    7 1.29939557483318e-15                   17                    0                    0                    0 
351     3.73307186766769     6.13576523167975     2.49657405564493     0.96532406315995     2.97911106305731                    5 1.06533981738464e-15                   20                    0                    0                    0 
351     3.79617543416394      5.3484433642494     2.59943978739959     0.99153252289505     1.62523217793209                    3 1.52627861693213e-15                   16                    0                    0                    0 
351     3.81497975089899     5.73970172812092     2.59259959106066     0.99829374256475     1.02053942224232                    1 1.40261009886515e-15                   12                    0                    0                    0 
205      5.5333472145911     6.24735506193162     1.45595487500749                    1     3.35913244829652                    5 1.58406722525034e-15                   18                    0                    0                    0 
137     9.61355114386145     6.19128923007023     1.48352167132266                    1     3.31107103481992                    5 1.52419829938055e-15                   24                    0                    0                    0 
346     1.15518942974737     6.90330771528016     2.33877464811045       0.928253029752     2.25458552932954                    9 1.72230301447855e-15                   16                    0                    0                    0 
346      1.0720876716046     6.72444760674038     2.55233914206823     0.99153252289505     1.51609216517441                    6 2.11432098269569e-15                   15                    0                    0                    0 
119     7.44273470602826      6.8292884645597     1.54995257341465                    1     3.58471167639889                    6 2.01451215611526e-15                   17                    0                    0                    0 
119      7.4374999407456     7.25949528188016     1.36301317772296     0.99829374256475     1.02452285358712                    1 2.07502593799026e-15                    9                    0                    0                    0 
119     7.59651072367369     7.45753265639796     1.66130878131619     0.99153252289505     1.62343483437285                    2 2.26212076579182e-15                   13                    0                    0                    0 
155     2.98605297489409     7.61068629179779     1.43700601774669                    1     3.38695095397551                    5  2.5012671387655e-15                   18                    0                    0                    0 
119     7.70401278094175     7.67894535780622     1.81599025096119       0.928253029752     2.21602392869965                    9 1.99931746948528e-15                   16                    0                    0                    0 
100     9.46162099794006     8.43180681287547     2.33492388987386                    1     3.40210135200516                    6 6.95668005384916e-16                   18                    0                    0                    0 
201      6.6093473608461     9.56041667587065     2.60715492103823     0.96532406315995     2.79965224720738                    6 7.28618243018137e-15                   13                    0                    0                    0 
219      3.0262891851282    0.743945963860796      3.4879292848437     0.96532406315995     2.77917018044126                    6  1.7541843233225e-15                   19                    0                    0                    0 
219     3.15848983194829    0.508124140229242     3.80369369087984     0.99829374256475    0.883002984493441                    6 1.47321458139715e-15                   11                    0                    0                    0 
72     4.84445758126974      1.0484395394116     2.90389043886101     0.96532406315995     2.88378576138149                    7 8.39590544102744e-16                   19                    0                    0                    0 
72     5.03962794708162    0.753961092971321       3.122949966228     0.99829374256475    0.922761072436301                    1 1.10389246141919e-15                   12                    0                    0                    0 
72     5.13368870164602    0.510272489981101     3.41492930991052     0.99153252289505     1.53981492152714                    6 1.31396545726205e-15                   16                    0                    0                    0 
72     5.34336487567003    0.601275935308498     2.79971202455704                    1     3.25239704588729                    6 1.36516537344805e-15                   21                    0                    0                    0 
72     5.13374449515979    0.385410276717259     3.67744799171785       0.928253029752     2.41548837607653                   11 1.21678872784157e-15                   23                    0                    0                    0 
136     7.33240764338883    0.669739568758568     2.62215398435238                    1     3.22103130783276                    5 1.40859338489761e-15                   19                    0                    0                    0 
136     7.35586911152559    0.891209342608824      3.2625582457658     0.96532406315995     2.81521231503892                    4 1.18078301727876e-15                   13                    0                    0                    0 
136     7.58280880444579    0.643298833239619     3.01794659689561     0.99829374256475     0.96304441468643                    0 1.04254592367485e-15                   10                    0                    0                    0 
136     7.85978609852409    0.393402800117543     2.89828436763905     0.99153252289505     1.56233680810724                    3 7.34969821460323e-16                   13                    0                    0                    0 
136     8.09791883018524    0.226729057424991     2.90267746693488       0.928253029752     2.27312206275302                   10 4.47649982023845e-16                   19                    0                    0                    0 
166     1.12612223071191     1.41527291355377     2.92473824370439                    1     3.36877181100248                    3 2.39124990530838e-15                   17                    0                    0                    0 
166     1.31594137827574     1.83755344663127     3.00023320179407     0.99829374256475     0.96441494032583                    1 2.42201737980325e-15                   13                    0                    0                    0 
166     1.38672547353478     1.80482757224664     3.38416304814404     0.99153252289505      1.5325795564587                    4 2.64957104165651e-15                   13                    0                    0                    0 
166     1.47778617376358     1.87177254733948      3.6519931302778       0.928253029752     2.44769591760316                    7 2.34048233556999e-15                   18                    0                    0                    0 
140     9.51241247409915     1.90768768833466       2.727687060014     0.99829374256475    0.921496762834947                    2 6.45108056655067e-16                    8                    0                    0                    0 
140     9.29867833433522     1.75005050024972     3.11436506627749                    1     3.10951381210117                    9 7.50478340959827e-16                   22                    0                    0                    0 
140     9.54530433599288     2.28551082563767     2.82592809143388     0.99153252289505     1.57706495544989                    4 9.80876609484424e-16                   17                    0                    0                    0 
187     3.15885680910637     2.57790318825207     2.79726494848942                    1     3.24539669435576                    8 2.24701048656664e-15                   21                    0                    0                    0 
187     3.45005996030381     2.69637117990999     3.14542828053648     0.99829374256475     1.02643681266385                    1 2.01933337143311e-15                   12                    0                    0                    0 
187     3.18571330115105     2.75623275056453     3.42830799714589     0.99153252289505       1.576705985009                    2 2.55170412760669e-15                   19                    0                    0                    0 
187     3.07424189891651     2.81667423360606     3.68989466982712       0.928253029752     2.41759178902316                    8  2.4110931907699e-15                   22                    0                    0                    0 
187     3.81317723557246     2.67830917573257     2.94389487872005     0.96532406315995     2.88541538689983                    5 1.45115949161583e-15                   16                    0                    0                    0 
148     5.86869148208194     2.76663977669924     2.83366705965448     0.99153252289505      1.6045559972006                    3 1.55434811032583e-15                   16                    0                    0                    0 
148     5.69427331559512     2.84809211262048     3.05149831059275       0.928253029752     2.28807835484689                   11 1.50861216373922e-15                   19                    0                    0                    0 
31     7.71851386083215     2.71715888540585     3.76928966402325     0.96532406315995     2.79185942773548                    7 6.63915083049722e-16                   19                    0                    0                    0 
31     7.80603640792896     3.28038500586415     3.40209344912172                    1     3.20789732031723                    5 1.08277774312171e-15                   24                    0                    0                    0 
31     7.93038621319356     3.07309905953249     3.80411497650828     0.99829374256475    0.879568336079875                    5 7.77705912762657e-16                   11                    0                    0                    0 
140     9.61646533766457     2.56690939645299     2.80987848406771       0.928253029752     2.47306481477223                    8 1.01663886044774e-15                   20                    0                    0                    0 